LAMMPS data file via write_data, version 3 Nov 2022, timestep = 12

217 atoms
2 atom types

-0.0333756256662638 16.353375625666352 xlo xhi
-0.0333756256662638 16.353375625666352 ylo yhi
-0.0333756256662638 16.353375625666352 zlo zhi

Atom Type Labels

1 Si
2 C

Masses

1 28.0855
2 12.011

Atoms # atomic

3 1 1.3255189466962178 1.340467264694239 1.331003045057 0 0 0
8 1 -0.03246325680983616 2.7150614301809446 2.69819422490852 0 0 0
12 1 2.688801133887441 2.6936667086085166 5.424791245966499 0 0 0
7 1 4.049316229719427 1.3240269410977923 4.059539201918854 0 0 0
5 1 4.061574888946893 4.065847392863202 1.3313599507081266 0 0 0
172 1 13.579426159993798 8.146916348854711 0.005543407523172742 -1 -1 0
80 1 5.41196775646369 2.6738174028205175 2.6817082794979425 0 0 0
75 1 6.7893261534100615 1.3241218066302405 1.3187344675287929 0 0 0
81 1 6.783394816215889 4.011859347661203 4.053904502522132 0 0 0
175 1 14.97988923114559 6.798942589872634 4.063159635492841 -1 0 0
78 1 8.157701380495434 -0.0327387099207948 2.6874627012631387 -1 0 0
82 1 5.417707521412732 -0.03328617713511831 5.427657071647013 0 0 0
79 1 9.528143024929747 1.319925841106146 4.05684708078659 -1 0 0
152 1 10.89043637875741 2.687021985701796 2.6941137500377637 -1 0 0
147 1 12.26037992386743 1.3314542095895547 1.324903761756607 -1 0 0
77 1 9.53211391366281 4.045366513956771 1.3202279926578893 -1 0 0
153 1 12.26472579413997 4.044639445830128 4.052889872003759 -1 0 0
154 1 10.897501166862893 -0.03233840005973988 5.4274899709767945 -1 0 0
151 1 14.995258198892419 1.3379476254546934 4.0609018606741385 -1 0 0
150 1 13.632102342736122 -0.027043960064922913 2.692013349827371 -1 0 0
10 1 16.351763568169865 -0.03195202281862122 5.427905448255231 -1 0 0
9 1 1.3392175050020112 4.078927455722366 4.063477365578849 0 0 0
27 1 1.3401037712016737 6.800606649620518 1.3332889389611926 0 0 0
30 1 2.713921067513256 5.443445211692363 2.699310989145664 0 0 0
149 1 14.982691983109328 4.077768850261644 1.3304470719919301 -1 0 0
31 1 4.091796715404599 6.801496435122996 4.077521211427694 0 0 0
99 1 6.80719106359548 6.8008972240411305 1.361288593202597 0 0 0
98 1 5.429282663250404 5.44279697660365 -0.016670039647944678 0 0 0
106 1 5.412118443560148 5.369142839887982 5.40934189169487 0 0 0
102 1 8.139121519626276 5.368376537238741 2.681604514221254 -1 0 0
176 1 10.757092002682077 8.138648472077387 2.8289643562974436 -1 -1 0
103 1 9.385041186560496 6.675833513118168 4.201736720537438 -1 0 0
171 1 12.177847171972083 6.81254082167548 1.4071832740599426 -1 0 0
170 1 10.885764639662336 5.438293621837448 -0.02343151435899225 -1 0 0
34 1 16.350913184205385 5.437405301421516 5.428270639883419 -1 0 0
174 1 13.608631084288055 5.437987785518018 2.699294808349234 -1 0 0
84 1 8.157139233344743 2.665450835932736 5.42797345416128 -1 0 0
11 1 1.3220985454538776 1.3377087533627507 6.794671198695283 0 0 0
16 1 16.349340263177318 2.7136339707732318 8.157531746432753 -1 0 -1
15 1 4.05579732605306 1.3302687283709635 9.529877364752439 0 0 -1
88 1 5.424721236442586 2.6869328737867626 8.161254534739179 0 0 -1
83 1 6.786356870159053 1.3193422463553264 6.798504671212855 0 0 0
86 1 8.157414353757817 -0.0331891948318237 8.16719727445355 -1 0 -1
14 1 2.685045649369479 -0.028664735848042966 8.162488722223053 0 0 -1
87 1 9.525317821091322 1.3240030025585585 9.536171710446103 -1 0 -1
160 1 10.903082178739618 2.673733151602977 8.173806951856434 -1 0 -1
155 1 12.265971862343779 1.3244473137175525 6.795981216755441 -1 0 0
161 1 12.253989369812464 4.064648875016756 9.524956968720192 -1 0 -1
85 1 9.531355135617313 4.01155965479031 6.801987093460658 -1 0 0
183 1 14.975870275788987 6.799010517824215 9.523167104152659 -1 0 -1
159 1 14.99039155883255 1.3399400515810878 9.524772380098401 -1 0 -1
157 1 14.977020951566637 4.077983476447328 6.792827629088952 -1 0 0
156 1 13.627672388399928 2.693056230937889 5.430964335877216 -1 0 0
18 1 16.351732510145048 -0.03307838705253172 10.888413166191187 -1 0 -1
17 1 1.3334002111472627 4.076605094518346 9.5252477784354 0 0 -1
35 1 1.3351874914208612 6.799250490774504 6.7931241805777915 0 0 0
38 1 2.70649626610023 5.438145653834239 8.156395022866295 0 0 -1
44 1 2.736196535604403 8.146545696494226 10.849388410289492 0 -1 -1
13 1 4.051347324362986 4.045828062702454 6.802825682857478 0 0 0
218 1 5.558893600635874 8.137695373538044 8.02614404999223 0 -1 -1
39 1 4.1375177531529275 6.812287258096819 9.447967968513371 0 0 -1
89 1 6.783028049450156 4.045513490122978 9.534995038181814 0 0 -1
107 1 6.633252895536078 6.976772541893771 6.653538510166016 0 0 0
108 2 7.233252895536078 6.376772541893771 6.653538510166016 0 0 0
114 1 5.429143186413898 5.438191554593017 10.878863517300633 0 0 -1
182 1 13.602190209752573 5.441820418893199 8.157322323060791 -1 0 -1
179 1 12.224174908890127 6.799867145625112 6.7790568571668635 -1 0 0
110 1 8.176893329986507 5.368666922631597 8.174557287634592 -1 0 -1
111 1 9.509189870419108 6.801026950681148 9.494406326718858 -1 0 -1
178 1 10.904398382291557 5.367472452859138 5.446757143826858 -1 0 0
186 1 10.886721458650127 5.442855802099154 10.872386957410104 -1 0 -1
40 1 16.350636195881055 8.15998970665174 8.159934287745717 -1 -1 -1
20 1 2.694531718355009 2.704584190299518 10.890971001732899 0 0 -1
22 1 2.6973815393905007 -0.032734364252018366 13.620531195786896 0 0 -1
19 1 1.3313129526194551 1.3326636400710798 12.25429467879517 0 0 -1
23 1 4.061084425791987 1.3400600809363294 14.981907040708588 0 0 -1
24 1 16.351484055733007 2.697695314718333 13.62134327835115 -1 0 -1
96 1 5.428055186618935 2.713931167683479 13.622819258339094 0 0 -1
91 1 6.790727331610277 1.3374564370448878 12.26360370523802 0 0 -1
94 1 8.157714750839848 -0.0322872494468879 13.620283327155061 -1 0 -1
95 1 9.524776859113533 1.3376768713317642 14.977335740346838 -1 0 -1
168 1 10.88779555405801 2.714784452519422 13.618760210431912 -1 0 -1
163 1 12.25427014481165 1.3400046914769403 12.260004741047094 -1 0 -1
146 1 10.893277225864802 -0.02734757282994373 16.34039584161589 -1 0 -1
148 1 13.621720306639629 2.706104996069653 16.35088873982781 -1 0 -1
167 1 14.984544808764452 1.3331679395978486 14.987683089250933 -1 0 -1
164 1 13.622569699449324 2.702778854778224 10.892510038428203 -1 0 -1
166 1 13.618817295183788 -0.03271397581043768 13.62095926975665 -1 0 -1
26 1 16.35335706756464 5.439127235297205 16.35164678226495 -1 0 -1
25 1 1.3279134938427475 4.069009318277621 14.984372743308183 0 0 -1
43 1 1.3451181488996784 6.805382382427061 12.24083501294402 0 0 -1
46 1 2.6950236926922972 5.438475106766736 13.62303278884458 0 0 -1
47 1 4.06336035916909 6.80008773539325 14.996480141564925 0 0 -1
191 1 14.971252470954129 6.805886791687493 15.001852555950617 -1 0 -1
21 1 4.0604112291533685 4.076845594291543 12.251828847659002 0 0 -1
190 1 13.62146020128925 5.438878240899566 13.620025308971712 -1 0 -1
97 1 6.792817596302662 4.078254048957468 14.994776137364646 0 0 -1
115 1 6.792618079528303 6.799453841105385 12.250038288761441 0 0 -1
118 1 8.157721014641895 5.4377880419889895 13.621090682287267 -1 0 -1
93 1 9.522545426118027 4.078669706118854 12.246840371525765 -1 0 -1
169 1 12.255049064468157 4.077638037307555 14.990085344897695 -1 0 -1
165 1 14.988296711116499 4.0687882187946425 12.258482052003831 -1 0 -1
119 1 9.522485673754879 6.7997227896431465 14.992145430068783 -1 0 -1
187 1 12.252506225336402 6.800017218972279 12.246370159292475 -1 0 -1
42 1 16.350005233522626 5.438109086900078 10.891369418374314 -1 0 -1
4 1 2.6937827332482813 2.703530076982077 16.349940124871072 0 0 -1
2 1 16.35140281174073 -0.03208772652860148 16.353167277827282 -1 0 -1
76 1 8.154298312924354 2.6931781217565356 16.344086546154607 -1 0 -1
92 1 8.160880669165971 2.6934261505511605 10.897412864426984 -1 0 -1
90 1 5.422987151646419 -0.028836116522580113 10.900503984864354 0 0 -1
33 1 1.334317569030053 9.522238200350522 4.062816354991769 0 -1 0
54 1 2.7052664456961573 10.883460306973992 2.6989485038821344 0 -1 0
28 1 2.736270592858165 8.175374568649941 0.005979827504818049 0 -1 0
29 1 4.137421948982445 9.510300951176196 1.4071549343804939 0 -1 0
105 1 6.932982732635235 9.647852340946761 4.200580531394455 0 -1 0
104 1 5.559501617572927 8.184923446510469 2.828955894080345 0 -1 0
122 1 5.429816538330359 10.88445826995712 -0.023190510068554892 0 -1 0
100 1 8.157736711801947 8.161420907290085 -0.022491965926574643 -1 -1 0
126 1 8.177481463777674 10.955433717988047 2.6808466962849478 -1 -1 0
101 1 9.508904741572954 9.521797303144377 1.360922424038339 -1 -1 0
177 1 12.225249987153703 9.521053139250201 4.077296968901625 -1 -1 0
202 1 10.906693263861396 10.955192959792326 5.408940683391373 -1 -1 0
194 1 10.886784198624028 10.879462004803713 -0.017103968196221998 -1 -1 0
173 1 14.975781769072581 9.521670079613902 1.3327207339087888 -1 -1 0
198 1 13.602455907306561 10.879101995459346 2.6987017603188823 -1 -1 0
199 1 14.97682221923225 12.243721575930941 4.063249284994671 -1 -1 0
58 1 16.35007111163601 10.883625683357753 5.42813964675606 -1 -1 0
6 1 2.684032505554256 16.350017091767253 2.6927078110708953 0 -1 0
55 1 4.050007228969548 12.276166554953628 4.052197096786455 0 -1 0
51 1 1.3326366564333307 12.244906343487106 1.3302566535631684 0 -1 0
57 1 1.3210397705345118 14.98415403797326 4.0608057019162445 0 -1 0
53 1 4.054733289232623 14.991197239506594 1.3248130849389694 0 -1 0
32 1 16.350279110730167 8.160656769927241 2.6963631471755805 -1 -1 0
180 1 13.608159618633598 8.160240064367107 5.428504351300765 -1 -1 0
123 1 6.7833274450357415 12.277983178120587 1.319997752598793 0 -1 0
128 1 5.423490885822583 13.634946691801984 2.6935735974764694 0 -1 0
129 1 6.786619641691057 15.00139168603012 4.0564401746840755 0 -1 0
132 1 8.158061429612044 13.655789243118775 5.427345385686839 -1 -1 0
127 1 9.533672601277393 12.311463719540567 4.053366649961272 -1 -1 0
125 1 9.5267513318277 14.998368930965603 1.3189285857194575 -1 -1 0
200 1 10.904996768406393 13.649230782228255 2.681240275296756 -1 -1 0
36 1 2.7064965507437475 8.160861836271254 5.427627527399268 0 -1 0
195 1 12.254652292001033 12.25657100138407 1.3307287814626798 -1 -1 0
204 1 13.628556615309597 13.629973342552727 5.42515738314165 -1 -1 0
197 1 14.990103333460034 14.982132936818957 1.3304494770166984 -1 -1 0
56 1 16.348265494515562 13.608195026759812 2.697644679871017 -1 -1 0
201 1 12.267236384254083 14.998687960763814 4.059599661111165 -1 -1 0
112 2 8.159898696677681 8.874931331572006 5.426925679791855 -1 -1 0
41 1 1.3397482036228943 9.52102266495646 9.52232125116903 0 -1 -1
62 1 2.7128602009996503 10.878154943061222 8.155870739871435 0 -1 -1
59 1 1.337829313532416 12.242729541346817 6.792375584578378 0 -1 0
37 1 4.09131321054617 9.520963103240938 6.777454867343276 0 -1 0
63 1 4.061296320202814 12.254942369990578 9.523637220238758 0 -1 -1
113 1 6.807556563721436 9.5204980173779 9.493527463029364 0 -1 -1
134 1 8.139540568589789 10.953480821489196 8.173761989577306 -1 -1 -1
138 1 5.429472532808335 10.878112696825141 10.871372728081653 0 -1 -1
130 1 5.41187710125369 10.953432065960834 5.445520190415408 0 -1 0
109 1 9.386211159268711 9.648403651851233 6.653343195452582 -1 -1 0
185 1 12.17887027107104 9.509447928860952 9.44878158210133 -1 -1 -1
184 1 10.757304311745736 8.184539421350443 8.026735726520398 -1 -1 -1
210 1 10.886495724264854 10.88331072912789 10.879091318470175 -1 -1 -1
116 1 8.157853324142494 8.16061677710258 10.878002679319755 -1 -1 -1
181 1 14.979871879182138 9.521805602738246 6.793713804592345 -1 -1 0
206 1 13.609817304888594 10.883971797947906 8.157406571397452 -1 -1 -1
207 1 14.983108394082418 12.245143237243907 9.52578678978826 -1 -1 -1
188 1 13.580128731830026 8.1746276854148 10.849979278313318 -1 -1 -1
203 1 12.266712512459106 12.277646926203182 6.803418915448408 -1 -1 0
65 1 1.326441027726045 14.981581723322307 9.52450089781929 0 -1 -1
158 1 13.631172702936018 16.350578409918953 8.163205010165951 -1 -1 -1
61 1 4.04902874330618 14.996410701186965 6.7953093261913 0 -1 0
131 1 6.783921909231027 12.30982012256888 6.80119438491482 0 -1 0
136 1 5.411653296619864 13.64675180433898 8.173078087237602 0 -1 -1
205 1 14.995080259891164 14.985350766938257 6.795133668083531 -1 -1 0
137 1 6.789404626179834 14.996486643116084 9.535630141566772 0 -1 -1
64 1 -0.03317046625392095 13.607982241388687 8.157448177538024 0 -1 -1
135 1 9.533286867254219 12.276133680732869 9.534753040991953 -1 -1 -1
209 1 12.260016313170214 14.991413257100707 9.530306537089569 -1 -1 -1
208 1 10.891593799708192 13.635025014595982 8.161310613773345 -1 -1 -1
133 1 9.528856522779531 15.00168479946289 6.7982530180031056 -1 -1 0
66 1 -0.03321295125656576 10.882848947543994 10.890950575419886 0 -1 -1
60 1 2.6870518379406283 13.627747188544001 5.430543075544846 0 -1 0
49 1 1.345456383465857 9.516647689982314 15.001423441408305 0 -1 -1
70 1 2.695754997985985 10.883163164011775 13.61941302222639 0 -1 -1
45 1 4.063772868536873 9.521328089169145 12.245574230151558 0 -1 -1
67 1 1.3283857224880435 12.25235372305444 12.258001148611724 0 -1 -1
71 1 4.061118661661122 12.245298904936266 14.990007107709754 0 -1 -1
121 1 6.792546536215672 9.522703798595828 14.992391619710963 0 -1 -1
142 1 8.15748772081048 10.883944879571363 13.62115552954433 -1 -1 -1
139 1 6.793046722476428 12.242750125293677 12.24630743063844 0 -1 -1
117 1 9.522613605905189 9.522274675094488 12.25000852437447 -1 -1 -1
193 1 12.252133578930993 9.521910207324037 14.995915581787786 -1 -1 -1
211 1 12.254762283769915 12.24477882495598 12.252027960453566 -1 -1 -1
143 1 9.522337528735155 12.243687525203034 14.994893354472934 -1 -1 -1
189 1 14.97111088930149 9.516207041671107 12.240420274044723 -1 -1 -1
214 1 13.620798225949216 10.882923141198992 13.622367503983565 -1 -1 -1
50 1 16.349332913601096 10.883103945062068 16.35088813261909 -1 -1 -1
192 1 10.888848222744894 8.160995960370803 13.621241334271454 -1 -1 -1
213 1 14.98469214161825 14.988654705144167 12.254269426495123 -1 -1 -1
72 1 16.351605399534645 13.623374886944307 13.620388967485038 -1 -1 -1
73 1 1.3307909491821928 14.988627538014368 14.987093760652238 0 -1 -1
74 1 5.422541967508157 16.34989354194621 16.340861448038748 0 -1 -1
140 1 8.154815447658889 13.62792756606769 10.896992971361652 -1 -1 -1
69 1 4.061678275171347 14.98127252858543 12.259317766389486 0 -1 -1
144 1 5.428838312041535 13.60785393495595 13.618468169997369 0 -1 -1
145 1 6.791126725829103 14.984754828368073 14.977457519603814 0 -1 -1
162 1 10.892402847563753 16.350152060722756 10.901021101222398 -1 -1 -1
141 1 9.524191332706861 14.984131111202366 12.263407447217698 -1 -1 -1
216 1 10.886885982124513 13.607963347574248 13.622709369162477 -1 -1 -1
217 1 12.25423817278172 14.981846511420247 14.981693549191027 -1 -1 -1
212 1 13.6211484646504 13.616773016754518 10.89133342225759 -1 -1 -1
196 1 13.622506245425138 13.619032788931378 16.34931738617534 -1 -1 -1
215 1 14.988168125139685 12.252658326085095 14.983761428013848 -1 -1 -1
48 1 16.351682234702697 8.161225608115327 13.621311248157731 -1 -1 -1
120 1 5.426683587704871 8.16090804234351 13.621495749370128 0 -1 -1
52 1 2.6936597807209286 13.6163058577498 16.350455997737527 0 -1 -1
124 1 8.161562500249872 13.62988185269131 16.343970743241513 -1 -1 -1
68 1 2.6941301108968934 13.617738594377693 10.891798668802632 0 -1 -1

Velocities

3 -0.00406333 -0.00353237 -0.00363648
8 0.00970398 -0.00715009 -0.00695193
12 -0.00424323 0.00174544 -0.00201591
7 0.00768767 0.00678974 -0.0055655
5 -0.00843469 -0.0013452 -0.007991
172 -0.00744361 0.00437226 0.00330263
80 -0.00783169 0.00424526 -0.00736396
75 -0.00787999 0.00167395 -0.0039007
81 -0.00299029 -0.00460852 -1.543e-05
175 0.00154645 -0.00507736 0.0065694
78 0.00805502 -0.00639569 -0.00482161
82 0.00942509 0.00277025 0.00881879
79 -0.00734611 0.00945368 -0.00029435
152 0.00826736 0.00640025 0.00066594
147 -0.00714741 0.00791085 -0.00326801
77 -0.00617793 0.00040335 -0.00405917
153 -0.00878153 -0.00129077 0.00909023
154 0.0044076 0.00684755 -0.00023899
151 0.00272375 -0.00684559 -0.00682381
150 0.00265676 -0.00942716 4.579e-05
10 -0.00058335 -0.00111029 0.0073267
9 -0.00102253 -0.00285621 -0.006759
27 -0.00588445 -0.00927935 -0.00159461
30 -0.00071474 0.00187717 0.00728958
149 -0.00619746 9.583e-05 0.00442924
31 0.00680105 -0.00019619 0.00782804
99 0.00310103 0.00624001 0.0034116
98 -0.00024491 0.00695663 0.00104414
106 -0.00097277 0.00881959 0.0009355
102 0.00759932 -0.0089049 0.0092494
112 -0.00681243 -0.00726918 -0.0048982
176 0.00987031 0.0041543 0.00088977
103 0.00602571 -0.00302505 -0.00286079
171 0.00668213 -0.0064265 -0.00226321
170 0.00459597 -0.00597629 0.00172515
34 -0.00084266 0.00241884 -0.00548255
174 0.00540244 0.00866104 -0.00299408
84 0.00556441 0.00138556 -0.00713027
11 -0.0067877 0.00167954 0.00500087
16 0.00281905 -0.00903819 -0.00036903
15 -0.00233984 0.00179641 -0.00378094
88 -0.00183417 0.00466772 0.00199249
83 0.00240721 0.00704561 -0.00443444
86 -0.00366412 0.00016722 0.00281772
14 0.00398527 -0.0077419 0.00815669
87 0.00289942 -0.00602422 -0.00371074
160 0.00705241 0.00605249 -0.00102001
155 -0.00671745 -0.00394795 -0.00744827
161 0.00573732 0.00311596 0.0077115
85 0.00804959 -0.00160529 -0.00359205
183 -0.00519164 0.00754539 0.00371374
159 -0.0087181 -0.00942526 -0.00093578
157 0.0025788 0.0076632 0.00121167
156 -0.00091725 -0.00471783 0.00725416
18 0.00456309 -0.00525479 -0.00210469
17 -0.004316 -0.00227567 -0.00899233
35 0.00283412 0.00712981 0.00097312
38 0.00371553 -0.00708878 -0.00014866
44 -0.00319947 -0.00077155 0.00240055
13 -0.00676235 0.00785297 0.00056532
218 0 0 0
39 0.00303036 0.00203013 -0.00855712
89 -0.00644113 -0.00685582 0.00891929
107 0.00010222 0.00095231 0.00066985
114 -0.00546301 -0.00495563 0.0066283
182 0.00312973 -0.00271784 -0.00597278
179 -0.00341052 -0.00212899 0.00235867
110 0.00290563 0.00856024 -0.00926269
111 0.0075285 -0.0089786 -0.00725125
178 0.00655469 0.00876856 0.00351638
186 0.00399084 -0.00764174 -0.00521148
40 -0.00411157 0.00689631 0.00084368
20 -0.0073885 -0.00730703 -0.00128593
22 -0.00363987 -0.00765779 -0.00520564
19 0.00481547 0.00365527 0.00869469
23 -0.00730561 -0.00884811 0.00217875
24 0.00807484 0.00182483 0.00604555
96 -0.00532583 0.00092928 0.00590616
91 -0.00020142 -0.00332076 -0.00111535
94 -0.00028629 0.00211244 -0.00652166
95 -0.00875725 0.00390435 0.00827817
168 0.00109825 -0.00787254 0.00327386
163 -0.00516761 0.00232305 -0.00718404
146 -0.00050879 -0.0012037 -0.00012688
148 0.00830141 -0.00352506 -0.0014993
167 0.00706004 0.00199309 0.00649948
164 -0.00839431 -0.00757353 0.00437914
166 -0.00509777 -0.00062552 -0.00750481
26 0.00429692 -0.00325557 -0.0061392
25 0.00304894 -0.00619983 0.00842208
43 0.0047468 -0.00098162 -0.00206665
46 -0.00486393 0.00739862 -0.00335936
47 0.00612353 0.00919686 0.0014132
191 0.00152629 -0.00507255 -0.00312892
21 0.00132531 -0.00082497 0.00120295
190 0.00692673 0.00837743 -0.00356754
97 -0.00878407 0.00203126 0.00152309
115 0.00256079 -0.00095266 0.00338203
118 -0.00284507 0.0015599 0.00511593
93 -0.00500442 0.00675413 -0.00443328
169 -0.00261656 0.00918415 0.00935814
165 -0.00135387 0.00193477 -0.00637006
119 0.00029746 0.00390844 -0.0051507
187 -0.00365771 -0.00499761 -0.00109261
42 -0.00584932 0.00721722 0.00265963
4 -0.00279926 -0.00875226 -0.00340964
2 -0.00853119 0.0079052 -0.00759242
76 0.00190369 0.00280262 -0.00022071
92 -0.00656402 -0.00352354 0.00054311
90 0.0094125 0.00532217 -0.00558663
33 0.00144638 -0.00326052 -0.00039707
54 -0.00223862 -0.00079173 0.00071676
28 0.00303907 0.00857062 -0.00215028
29 0.0093571 -0.00554755 0.0020986
105 -0.00689485 -0.00598556 -0.00315148
104 -0.00626244 -0.00908813 0.00585955
122 0.0041547 -0.00714443 -0.00483763
100 0.00608914 0.00217691 0.00731677
126 0.00313897 -0.00274452 0.00707543
101 -0.00372034 0.00500545 0.00899701
177 0.00284456 0.00483136 -0.00824397
202 -0.00846112 -0.00022259 -0.00290179
194 -0.00187823 -0.0010378 -0.00028067
173 0.00572019 0.00287204 -0.0008568
198 0.00040352 0.0022726 -0.00195606
199 0.00051712 -0.00096952 -5.386e-05
58 0.00039058 -0.00471236 -0.00521576
6 0.0036627 0.00361769 0.00131818
55 -0.00531014 0.00027773 0.0085744
51 -0.00844899 -0.00472717 -0.00082013
57 -0.00395354 0.00387463 0.00178599
53 0.00173556 0.00206357 -0.00676957
32 -0.00288568 0.00124874 -0.00097077
180 -0.00782482 -0.00892802 -0.00863908
123 -0.0032761 -0.00258405 -0.00374415
128 -0.00611098 0.00163587 -0.00160768
129 -0.00619103 0.00833831 0.00607163
132 0.00894326 -0.00650153 -0.00259755
127 -0.00178896 -0.00409785 -0.00217536
125 -0.00133191 0.00287814 -0.00552286
200 -0.00844929 -0.00632553 0.00855642
36 0.00215294 -0.00785828 0.00624175
195 -0.00623489 0.00447292 -0.00530425
204 -0.00574163 0.00950113 0.00945587
197 0.00163063 -0.00119839 -0.00645447
56 0.00798403 0.00915649 0.00898753
201 0.00511484 -0.0078618 -0.00820933
108 0.00703722 0.00936758 -0.00125585
41 0.00310257 -0.0010173 -0.00422369
62 0.00576591 0.00438481 0.00387137
59 -0.00813763 0.00468186 0.00305798
37 0.00504212 0.00189144 0.00150494
63 -0.00481065 0.00493683 0.0054588
113 -0.00206123 0.00865427 0.00382737
134 -0.00713718 0.00240369 0.00114071
138 0.00083186 0.0079925 0.00696512
130 -0.00320253 0.00211904 -0.00909396
109 -0.00262458 0.00042232 -0.00598711
185 0.00796643 0.00700326 0.00746621
184 0.00566158 0.00716911 -0.0040912
210 0.00487857 0.00645883 -0.00618692
116 0.00402684 -0.00785159 0.0042008
181 -0.001324 0.00714028 -0.00930103
206 0.0094655 0.00115027 -0.00551715
207 -0.00198155 -0.00592089 0.00817219
188 -0.00335314 -0.00383798 0.00286881
203 -0.00381831 -0.00570077 0.00055184
65 -0.00567056 -0.00645406 0.00088569
158 0.002838 -0.00677308 0.00841448
61 0.00594507 0.00695652 0.00880912
131 -0.00647392 0.00094007 -0.00110424
136 -0.0076653 -0.00295757 0.00293027
205 -0.00849423 0.00405916 -0.00805242
137 0.00187247 0.00462002 0.00783755
64 0.00898393 -0.00383732 0.00308353
135 0.00928437 -0.0007422 -0.00664062
209 -0.00073068 0.00082107 0.00145825
208 0.00447011 -0.00587869 -0.009052
133 -0.00549635 -0.00336109 0.00536829
66 0.00858536 -0.00303753 -0.00082486
60 0.00172362 0.00279962 0.00821506
49 -0.00536178 0.00093885 -0.00758931
70 0.00633387 0.0013751 0.00088796
45 0.00701449 -0.00244667 -0.00750879
67 -0.00054958 0.00898052 0.00216832
71 0.00747351 -0.00652264 -0.00068787
121 0.00705909 -0.0060882 -0.00752244
142 -0.00817371 0.00137404 -0.00795494
139 0.00198722 0.00133823 0.0049704
117 -0.00622491 0.00033603 -0.00313428
193 0.00248699 0.00059463 0.00859757
211 0.0086299 -0.00433646 -0.00599196
143 0.00293204 -0.00533149 -0.00034342
189 0.00702875 0.00143361 0.00039062
214 -0.00029772 -0.0077322 0.00401903
50 -0.00522863 -0.00796715 -0.00836061
192 -0.006089 0.00901053 0.00029529
213 -0.00090048 -0.00783174 0.0040114
72 -0.00041313 0.00283548 0.00660174
73 0.00543543 0.0018155 -0.00626882
74 0.00516234 0.00793376 0.00368211
140 -0.00756517 0.00063398 -0.00136453
69 -0.00858142 -0.00237358 0.00212421
144 -0.00440902 0.00598853 0.00367351
145 -0.0016293 -0.00839745 0.00346991
162 0.00842238 0.00609087 -0.00358586
141 -0.0053563 -0.00439504 0.00952367
216 0.00389002 0.00858964 0.00495404
217 -0.0079335 -0.00874159 0.00862883
212 0.00733902 -0.00155944 0.00420123
196 0.00028382 0.00454829 -0.0029135
215 0.00814269 -0.00607823 -0.00064842
48 0.00470147 -0.00132163 -0.00372148
120 0.00301408 -0.00630509 -0.00496667
52 -0.00878282 0.00272815 0.00562431
124 -0.00852651 -0.00365032 -0.00880609
68 0.01005268 0.00900018 0.00159773
