LAMMPS data file via write_data, version 3 Aug 2023, timestep = 428, units = metal

217 atoms
2 atom types

0.027376266105042305 16.29262373389485 xlo xhi
0.027376266105042305 16.29262373389485 ylo yhi
0.027376266105042305 16.29262373389485 zlo zhi

Atom Type Labels

1 Si
2 C

Masses

1 28.0855
2 12.011

Atoms # atomic

3 1 1.3875762603246073 1.3881503363346575 1.3799456870651368 0 0 0
75 1 6.801919721666648 1.3846820726012359 1.3806739975387186 0 0 0
152 1 10.88198826832525 2.719859862058312 2.727817212367425 -1 0 0
147 1 12.235253672542841 1.3644309174420848 1.3772815929150852 -1 0 0
2 1 16.291550820376052 0.028604602651125043 0.02751839673301752 -1 0 0
4 1 2.7478757297067147 2.748824783944152 0.030056791975385095 0 0 0
5 1 4.105048359297475 4.111528167564744 1.3865296266636282 0 0 0
102 1 8.141927923133407 5.410364398685187 2.6582909708763234 -1 0 0
77 1 9.528799029358096 4.0584625533757475 1.3421591317288313 -1 0 0
149 1 14.955960024417548 4.084520686996554 1.3770065701940384 -1 0 0
174 1 13.601159894201178 5.438457809254149 2.727344553856117 -1 0 0
27 1 1.3927331181134721 6.808953193406702 1.382532087704208 0 0 0
98 1 5.452662396526985 5.482348998722121 0.038482395679691965 0 0 0
99 1 6.7754729475153965 6.878972483824965 1.408214085432091 0 0 0
171 1 12.263610974525895 6.792036117435898 1.3410209076692943 -1 0 0
6 1 2.7356043101750775 0.037759009283566194 2.743123491850004 0 0 0
7 1 4.102442893553638 1.3919969165519084 4.093443953089951 0 0 0
82 1 5.4560319322758275 0.02772581380417992 5.44178603770299 0 0 0
79 1 9.52149004260764 1.3727764906690958 4.0885771780907705 -1 0 0
84 1 8.174213713005033 2.737345772530347 5.442563646004039 -1 0 0
151 1 14.957370660443681 1.3620852840921915 4.0901709935221815 -1 0 0
8 1 0.04583227661180921 2.740993691956318 2.7460445176017427 0 0 0
9 1 1.4131072992912515 4.111531289145074 4.089921097429878 0 0 0
80 1 5.456978567835036 2.750599297455096 2.742181055001228 0 0 0
81 1 6.825062845302586 4.10744426769837 4.08997994015116 0 0 0
153 1 12.274558693961996 4.046276436777217 4.080830449025788 -1 0 0
30 1 2.7796090002150993 5.489682603858324 2.7491745782865586 0 0 0
31 1 4.172100532326199 6.892622984102403 4.062016011816866 0 0 0
103 1 9.669681993172235 6.6526639269546415 3.9251202832508825 -1 0 0
180 1 13.583080029751262 8.14574003561227 5.442289489210627 -1 -1 0
175 1 14.947897042537626 6.798753227139834 4.088354371764956 -1 0 0
34 1 0.046175878508526114 5.452379777265662 5.44740793341593 0 0 0
106 1 5.5507722611804 5.555493012073196 5.446275638816439 0 0 0
11 1 1.4073749210434094 1.3867775943766887 6.792841365901991 0 0 0
16 1 0.048419170463772504 2.7318062846646187 8.156335455822852 0 0 -1
83 1 6.8150202041620815 1.3828514405435857 6.795032969027531 0 0 0
155 1 12.233781217737379 1.3604420961309112 6.801618835322178 -1 0 0
156 1 13.6122660504879 2.7074646416235857 5.456109091145267 -1 0 0
12 1 2.772777706191195 2.766716875306551 5.452500526444844 0 0 0
13 1 4.158466538917019 4.153194900701303 6.767316065528043 0 0 0
88 1 5.4658966883764775 2.7569269788595507 8.13951042312658 0 0 -1
85 1 9.538346727021572 4.069105836384628 6.810742511445404 -1 0 0
178 1 10.939965127169964 5.380569031501064 5.464347743748032 -1 0 0
157 1 14.959200742260478 4.085520285620269 6.801993848608062 -1 0 0
44 1 2.7575401261433274 8.1598851674551 10.84268287693992 0 -1 -1
35 1 1.409825618945649 6.8155916207308405 6.790813810322095 0 0 0
38 1 2.77183012142802 5.462634075054837 8.140580038835486 0 0 -1
107 1 6.965212044133414 6.904354950664396 6.853395674318734 0 0 0
40 1 0.04098681542131923 8.158296574462733 8.147770793317168 0 -1 -1
179 1 12.25129703182688 6.781576558374792 6.810760688291872 -1 0 0
15 1 4.106764534051771 1.3895291772705065 9.49253940908727 0 0 -1
87 1 9.515068368858595 1.3673233940598633 9.511517525867827 -1 0 -1
92 1 8.163169658518012 2.7370663261433523 10.861410559349519 -1 0 -1
160 1 10.885112138913291 2.7154669645906346 8.165901228652505 -1 0 -1
159 1 14.94726220815652 1.3716257345417484 9.504120053876768 -1 0 -1
17 1 1.4079811024485283 4.1002792606318295 9.498351871797668 0 0 -1
42 1 0.04443059845385908 5.445397241678676 10.860729231665927 0 0 -1
20 1 2.7519781472913225 2.7391231727348897 10.857919625363206 0 0 -1
89 1 6.8190254488410105 4.102754325697215 9.504983603507428 0 0 -1
161 1 12.240789443886326 4.078714667295458 9.517831474505364 -1 0 -1
182 1 13.604288534566923 5.434390672356677 8.166125335287182 -1 0 -1
39 1 4.130849523572396 6.823996073492191 9.480792272575782 0 0 -1
114 1 5.460339721589366 5.458886313846827 10.855203087308867 0 0 -1
184 1 10.881518502131675 8.106195874337361 8.17840874254 -1 -1 -1
110 1 8.212171723598805 5.436772855115366 8.17909222343564 -1 0 -1
111 1 9.53780221984282 6.780737832108248 9.545768239818997 -1 0 -1
188 1 13.581985546653653 8.156473826956379 10.860694136560994 -1 -1 -1
183 1 14.952307548735002 6.804323616517728 9.51179245951561 -1 0 -1
164 1 13.595862661886189 2.72353993980156 10.86882010757642 -1 0 -1
19 1 1.389091423161816 1.3846242433280638 12.21155757291094 0 0 -1
24 1 0.03782439017219099 2.7353226431531588 13.577043279449068 0 0 -1
22 1 2.741076489843502 0.03236849639227513 13.568782308491574 0 0 -1
91 1 6.802664334251957 1.3815828983240215 12.210708427473516 0 0 -1
163 1 12.230666139429397 1.368050010904737 12.21717168277174 -1 0 -1
168 1 10.878061511481787 2.7229867572206783 13.576781659557653 -1 0 -1
48 1 0.031279015228337426 8.159401283131412 13.55968903626943 0 -1 -1
21 1 4.1034727331103396 4.100226313152672 12.213025496245287 0 0 -1
96 1 5.454509086784144 2.7451292068415656 13.574230671700633 0 0 -1
93 1 9.518488571801331 4.082956848628872 12.230947242017473 -1 0 -1
186 1 10.889780237180359 5.429460428331437 10.8852389395365 -1 0 -1
165 1 14.951500176547018 4.088569461231813 12.21735390565429 -1 0 -1
190 1 13.59687432800247 5.441901672440748 13.576404069801645 -1 0 -1
43 1 1.3985889169426247 6.808374027346584 12.208098799060858 0 0 -1
46 1 2.746478000435036 5.451552260696296 13.57180695818483 0 0 -1
115 1 6.808059821991888 6.803979722126765 12.227097707678393 0 0 -1
116 1 8.166236274620593 8.15239002766618 10.871947772739485 -1 -1 -1
187 1 12.236522505122078 6.801064284798343 12.230434517552517 -1 0 -1
23 1 4.093452464352755 1.392700547977179 14.928045180106482 0 0 -1
74 1 5.444843244704143 0.03752413983661622 16.283104426168396 0 0 -1
76 1 8.155996944886146 2.719988162516463 16.270634826585695 -1 0 -1
95 1 9.51862496110334 1.3655207174907233 14.925297088824875 -1 0 -1
167 1 14.942016212406292 1.3776589191344621 14.928727202244168 -1 0 -1
148 1 13.591518668666845 2.7284537079362803 16.29068425115524 -1 0 -1
25 1 1.393547122821432 4.095510095921898 14.931144141080535 0 0 -1
97 1 6.800521300089619 4.104787835646679 14.942546868125593 0 0 -1
169 1 12.239661926480354 4.080476921007742 14.925521437066402 -1 0 -1
170 1 10.883049847672982 5.43793117736667 16.273281857066326 -1 0 -1
26 1 0.04136479364577038 5.448809939064641 16.290079062960345 0 0 -1
47 1 4.092641704484207 6.812620702115555 14.929358014665617 0 0 -1
118 1 8.163916845224787 5.448330868453851 13.584084272327337 -1 0 -1
119 1 9.512692302247698 6.807721186962308 14.944085962751114 -1 0 -1
192 1 10.871571848395561 8.156185602294038 13.583347561509063 -1 -1 -1
191 1 14.954861130455729 6.8014889115071915 14.924320633085287 -1 0 -1
32 1 0.03008218294822931 8.162160239875366 2.73215841471885 0 -1 0
29 1 4.056907772093463 9.571702258550674 1.3328680496261003 0 -1 0
101 1 9.441987700040904 9.544406719774187 1.4077630841115447 -1 -1 0
194 1 10.83815220263491 10.86750695459827 0.037520652924900436 -1 -1 0
176 1 10.911984731476387 8.178766414968935 2.6570217061212427 -1 -1 0
173 1 14.936078262483298 9.519106854600615 1.3796544634687595 -1 -1 0
54 1 2.7105186055048383 10.898657760349048 2.712567104274146 0 -1 0
51 1 1.3602093335142613 12.250066202148048 1.3643382105602042 0 -1 0
123 1 6.748819074087002 12.261402617066127 1.333773077659306 0 -1 0
195 1 12.208614307635683 12.215197000996582 1.38581540071439 -1 -1 0
196 1 13.571057226380633 13.572678054396109 0.029405769317251543 -1 -1 0
53 1 4.071016278489573 14.959812152672173 1.3647506649129975 0 -1 0
128 1 5.421956836481416 13.608746280411369 2.712798197225122 0 -1 0
78 1 8.158408906961796 16.28994346395777 2.7327536560422367 -1 -1 0
125 1 9.511058991440322 14.926833549426776 1.3828809209366106 -1 -1 0
197 1 14.931563405436117 14.932851731485284 1.3796810014271792 -1 -1 0
33 1 1.3859223557337954 9.522549791306464 4.079928290855907 0 -1 0
36 1 2.7653402016765023 8.179009029414958 5.427755264044916 0 -1 0
108 1 7.9036233380728325 8.412068473090477 4.247591886125581 -1 -1 0
105 2 6.613287489932565 9.703701075127508 3.6970954844350556 0 -1 0
126 1 7.929637097337281 10.81235881728085 2.7541114084202314 -1 -1 0
104 1 5.503912994344484 8.38900788211609 2.753074306243698 0 -1 0
130 1 5.648752203755261 10.669105457815869 5.11254418152005 0 -1 0
198 1 13.570083828780902 10.863737373127703 2.741332218396755 -1 -1 0
177 1 12.213775796432657 9.495363335018862 4.089411422453775 -1 -1 0
58 1 16.291924839671854 10.864220791056233 5.441621105090701 -1 -1 0
55 1 4.1336808720263045 12.186070328761154 4.060232039352826 0 -1 0
60 1 2.767605080958805 13.55236041206764 5.431388237345871 0 -1 0
132 1 8.140161586101158 13.552832970717366 5.427436326257693 -1 -1 0
127 1 9.426311767532448 12.145711745060433 4.061569069664025 -1 -1 0
200 1 10.829563061805214 13.539042718386074 2.749213881313484 -1 -1 0
199 1 14.928080054286683 12.21807766632218 4.093079415651313 -1 -1 0
57 1 1.39699508692832 14.923239747115566 4.094691015024694 0 -1 0
129 1 6.7977546829725775 14.933650981689587 4.080063118016553 0 -1 0
150 1 13.578250339435515 16.273859731952854 2.746078259089365 -1 -1 0
201 1 12.207494614034129 14.906176574203062 4.089621838355629 -1 -1 0
56 1 16.28224568166099 13.585181446344775 2.742887027976815 -1 -1 0
202 1 10.763063599946783 10.766864439041445 5.445752506964032 -1 -1 0
154 1 10.866891110388416 16.273267594925127 5.447234671212844 -1 -1 0
209 1 12.218108949304044 14.911025153092446 9.497312740035047 -1 -1 -1
62 1 2.792921036196111 10.845770262917386 8.098206089959154 0 -1 -1
37 1 4.206648688412174 9.535878506524796 6.692434862863762 0 -1 0
112 1 5.48943277851361 8.178097149038559 8.13035039345792 0 -1 -1
134 1 8.140031211861071 10.828093068566636 8.129300139371795 -1 -1 -1
109 1 9.413069379552502 9.351665467960537 6.8519532037939594 -1 -1 0
137 1 6.799618426453803 14.908570946313224 9.481284130015544 0 -1 -1
206 1 13.561721765120362 10.853120840413288 8.138824656700736 -1 -1 -1
181 1 14.937088034058439 9.504852319920198 6.794921355433905 -1 -1 0
59 1 1.4002229892397589 12.210610704087989 6.787615603871716 0 -1 0
64 1 0.034877876671646074 13.564520708996398 8.144295993442045 0 -1 -1
131 1 6.782569375645202 12.111595773374354 6.691811691561334 0 -1 0
136 1 5.473905170888479 13.526237754801006 8.098057951709091 0 -1 -1
208 1 10.855822658487774 13.54663611024259 8.139660418265894 -1 -1 -1
203 1 12.165182052131355 12.159942685501662 6.766373352674345 -1 -1 0
204 1 13.552028001495652 13.54629689498099 5.452184539075452 -1 -1 0
10 1 0.04269279908564226 16.276586507661793 5.453426553677429 0 -1 0
14 1 2.7549761677964963 16.284181849504712 8.144642287402846 0 -1 -1
61 1 4.109395387290356 14.919479152800607 6.787745111306992 0 -1 0
86 1 8.161282371705656 16.27837384885532 8.14747916763796 -1 -1 -1
90 1 5.456241958431581 16.286030271297125 10.842831451135655 0 -1 -1
133 1 9.503348191338157 14.909126274006319 6.790112158191765 -1 -1 0
205 1 14.932059283435041 14.911814924049157 6.792415416072778 -1 -1 0
158 1 13.587018947390748 16.27075401961829 8.155902009190436 -1 -1 -1
41 1 1.4108713445372192 9.519940741873006 9.481452560312425 0 -1 -1
66 1 0.03334065430437459 10.86384829607294 10.842208718367456 0 -1 -1
162 1 10.873895906897372 16.275064119286505 10.860244497517778 -1 -1 -1
113 1 6.8070774935525655 9.511236198553904 9.51904360694569 0 -1 -1
210 1 10.859677656287921 10.85866131006097 10.854071463444853 -1 -1 -1
185 1 12.215615884002542 9.499783126142441 9.503928376499735 -1 -1 -1
63 1 4.103744941104542 12.215766041986189 9.48327975433511 0 -1 -1
68 1 2.7442510450787347 13.57561109793614 10.843890565508012 0 -1 -1
138 1 5.448012595254166 10.871314324373191 10.858580466657289 0 -1 -1
140 1 8.159610210637616 13.561626115369975 10.842109755512386 -1 -1 -1
135 1 9.49416720285161 12.187426780883653 9.479468803096932 -1 -1 -1
212 1 13.579726143961631 13.56755458531825 10.856842231393806 -1 -1 -1
207 1 14.929230073632471 12.212532520607645 9.491657249897482 -1 -1 -1
65 1 1.3872088585323494 14.931983436191002 9.4954915657667 0 -1 -1
18 1 0.03500368836434621 16.28433277210845 10.860654629513423 0 -1 -1
218 2 8.124315655706305 8.192200811174958 6.049883315548582 -1 -1 0
217 1 12.22389047011412 14.926565574277918 14.930696689524297 -1 -1 -1
45 1 4.091213857518889 9.51918055067774 12.21329381087885 0 -1 -1
120 1 5.445718303424034 8.164782035370044 13.57090460041802 0 -1 -1
117 1 9.514983863216552 9.511076180682805 12.226362778225068 -1 -1 -1
214 1 13.574630050260955 10.866118030526657 13.572777894744632 -1 -1 -1
189 1 14.937740333646046 9.5172827566463 12.209612908908907 -1 -1 -1
67 1 1.3760798174789441 12.22957297580182 12.20007942282864 0 -1 -1
70 1 2.723271341424601 10.875354473410706 13.557029261969804 0 -1 -1
139 1 6.80039068227149 12.228287511068155 12.213018677376906 0 -1 -1
142 1 8.154945466262756 10.873889727139158 13.570462181396977 -1 -1 -1
216 1 10.868058164077388 13.57341034833791 13.571066369911541 -1 -1 -1
211 1 12.21848407258385 12.216087730094387 12.211598891674868 -1 -1 -1
72 1 16.28755209509693 13.57942656772457 13.568180376827348 -1 -1 -1
69 1 4.09044786251294 14.943489647058678 12.200522076257988 0 -1 -1
144 1 5.445162535265518 13.596689412857593 13.557318704894568 0 -1 -1
94 1 8.161059826957455 16.288494905522736 13.560574352817792 -1 -1 -1
141 1 9.51091353735331 14.92105494678971 12.207673125147432 -1 -1 -1
166 1 13.584253942083906 16.282017874630792 13.576705647153181 -1 -1 -1
213 1 14.934317540683324 14.930359546592351 12.210914927915306 -1 -1 -1
49 1 1.3692314869005886 9.523099272956859 14.917724684662213 0 -1 -1
28 1 2.7228205233048426 8.165266549855469 16.270656596323708 0 -1 -1
121 1 6.791247392422587 9.528658309963285 14.922279991421686 0 -1 -1
100 1 8.14399459078279 8.176264963566084 16.28719342840405 -1 -1 -1
193 1 12.215536093528474 9.519935119370793 14.941174985227528 -1 -1 -1
172 1 13.601182075223075 8.16512216859866 16.269133309540138 -1 -1 -1
122 1 5.411887089770309 10.907971572083005 16.232788455348825 0 -1 -1
71 1 4.062781643042179 12.25744914324152 14.893867280258565 0 -1 -1
143 1 9.507291481586195 12.227119500858656 14.928733494523525 -1 -1 -1
215 1 14.926944912652944 12.227237276369978 14.92698490153638 -1 -1 -1
50 1 16.282707946248998 10.876514280359329 16.282122003531562 -1 -1 -1
52 1 2.7214702474267995 13.59920890045133 16.27509414197521 0 -1 -1
73 1 1.3724865651931404 14.947615833604374 14.919615433659462 0 -1 -1
145 1 6.797547401339251 14.950352287675463 14.918553231085761 0 -1 -1
124 1 8.1549716825052 13.596134942244792 16.27129869340803 -1 -1 -1
146 1 10.871164702057118 16.278577678524364 16.290551321508655 -1 -1 -1

Velocities

3 -0.00406333 -0.00353237 -0.00363648
75 -0.00787999 0.00167395 -0.0039007
152 0.00826736 0.00640025 0.00066594
147 -0.00714741 0.00791085 -0.00326801
2 -0.00853119 0.0079052 -0.00759242
4 -0.00279926 -0.00875226 -0.00340964
5 -0.00843469 -0.0013452 -0.007991
102 0.00759932 -0.0089049 0.0092494
77 -0.00617793 0.00040335 -0.00405917
149 -0.00619746 9.583e-05 0.00442924
174 0.00540244 0.00866104 -0.00299408
27 -0.00588445 -0.00927935 -0.00159461
98 -0.00024491 0.00695663 0.00104414
99 0.00310103 0.00624001 0.0034116
171 0.00668213 -0.0064265 -0.00226321
6 0.0036627 0.00361769 0.00131818
7 0.00768767 0.00678974 -0.0055655
82 0.00942509 0.00277025 0.00881879
79 -0.00734611 0.00945368 -0.00029435
84 0.00556441 0.00138556 -0.00713027
151 0.00272375 -0.00684559 -0.00682381
8 0.00970398 -0.00715009 -0.00695193
9 -0.00102253 -0.00285621 -0.006759
80 -0.00783169 0.00424526 -0.00736396
81 -0.00299029 -0.00460852 -1.543e-05
153 -0.00878153 -0.00129077 0.00909023
30 -0.00071474 0.00187717 0.00728958
31 0.00680105 -0.00019619 0.00782804
103 0.00602571 -0.00302505 -0.00286079
180 -0.00782482 -0.00892802 -0.00863908
175 0.00154645 -0.00507736 0.0065694
34 -0.00084266 0.00241884 -0.00548255
106 -0.00097277 0.00881959 0.0009355
11 -0.0067877 0.00167954 0.00500087
16 0.00281905 -0.00903819 -0.00036903
83 0.00240721 0.00704561 -0.00443444
155 -0.00671745 -0.00394795 -0.00744827
156 -0.00091725 -0.00471783 0.00725416
12 -0.00424323 0.00174544 -0.00201591
13 -0.00676235 0.00785297 0.00056532
88 -0.00183417 0.00466772 0.00199249
85 0.00804959 -0.00160529 -0.00359205
178 0.00655469 0.00876856 0.00351638
157 0.0025788 0.0076632 0.00121167
44 -0.00319947 -0.00077155 0.00240055
35 0.00283412 0.00712981 0.00097312
38 0.00371553 -0.00708878 -0.00014866
107 0.00010222 0.00095231 0.00066985
40 -0.00411157 0.00689631 0.00084368
179 -0.00341052 -0.00212899 0.00235867
15 -0.00233984 0.00179641 -0.00378094
87 0.00289942 -0.00602422 -0.00371074
92 -0.00656402 -0.00352354 0.00054311
160 0.00705241 0.00605249 -0.00102001
159 -0.0087181 -0.00942526 -0.00093578
17 -0.004316 -0.00227567 -0.00899233
42 -0.00584932 0.00721722 0.00265963
20 -0.0073885 -0.00730703 -0.00128593
89 -0.00644113 -0.00685582 0.00891929
161 0.00573732 0.00311596 0.0077115
182 0.00312973 -0.00271784 -0.00597278
39 0.00303036 0.00203013 -0.00855712
114 -0.00546301 -0.00495563 0.0066283
184 0.00566158 0.00716911 -0.0040912
110 0.00290563 0.00856024 -0.00926269
111 0.0075285 -0.0089786 -0.00725125
188 -0.00335314 -0.00383798 0.00286881
183 -0.00519164 0.00754539 0.00371374
164 -0.00839431 -0.00757353 0.00437914
19 0.00481547 0.00365527 0.00869469
24 0.00807484 0.00182483 0.00604555
22 -0.00363987 -0.00765779 -0.00520564
91 -0.00020142 -0.00332076 -0.00111535
163 -0.00516761 0.00232305 -0.00718404
168 0.00109825 -0.00787254 0.00327386
48 0.00470147 -0.00132163 -0.00372148
21 0.00132531 -0.00082497 0.00120295
96 -0.00532583 0.00092928 0.00590616
93 -0.00500442 0.00675413 -0.00443328
186 0.00399084 -0.00764174 -0.00521148
165 -0.00135387 0.00193477 -0.00637006
190 0.00692673 0.00837743 -0.00356754
43 0.0047468 -0.00098162 -0.00206665
46 -0.00486393 0.00739862 -0.00335936
115 0.00256079 -0.00095266 0.00338203
116 0.00402684 -0.00785159 0.0042008
187 -0.00365771 -0.00499761 -0.00109261
23 -0.00730561 -0.00884811 0.00217875
74 0.00516234 0.00793376 0.00368211
76 0.00190369 0.00280262 -0.00022071
95 -0.00875725 0.00390435 0.00827817
167 0.00706004 0.00199309 0.00649948
148 0.00830141 -0.00352506 -0.0014993
25 0.00304894 -0.00619983 0.00842208
97 -0.00878407 0.00203126 0.00152309
169 -0.00261656 0.00918415 0.00935814
170 0.00459597 -0.00597629 0.00172515
26 0.00429692 -0.00325557 -0.0061392
47 0.00612353 0.00919686 0.0014132
118 -0.00284507 0.0015599 0.00511593
119 0.00029746 0.00390844 -0.0051507
192 -0.006089 0.00901053 0.00029529
191 0.00152629 -0.00507255 -0.00312892
32 -0.00288568 0.00124874 -0.00097077
29 0.0093571 -0.00554755 0.0020986
101 -0.00372034 0.00500545 0.00899701
194 -0.00187823 -0.0010378 -0.00028067
176 0.00987031 0.0041543 0.00088977
173 0.00572019 0.00287204 -0.0008568
54 -0.00223862 -0.00079173 0.00071676
51 -0.00844899 -0.00472717 -0.00082013
123 -0.0032761 -0.00258405 -0.00374415
195 -0.00623489 0.00447292 -0.00530425
196 0.00028382 0.00454829 -0.0029135
53 0.00173556 0.00206357 -0.00676957
128 -0.00611098 0.00163587 -0.00160768
78 0.00805502 -0.00639569 -0.00482161
125 -0.00133191 0.00287814 -0.00552286
197 0.00163063 -0.00119839 -0.00645447
33 0.00144638 -0.00326052 -0.00039707
36 0.00215294 -0.00785828 0.00624175
108 0.00703722 0.00936758 -0.00125585
105 -0.00689485 -0.00598556 -0.00315148
126 0.00313897 -0.00274452 0.00707543
104 -0.00626244 -0.00908813 0.00585955
130 -0.00320253 0.00211904 -0.00909396
198 0.00040352 0.0022726 -0.00195606
177 0.00284456 0.00483136 -0.00824397
58 0.00039058 -0.00471236 -0.00521576
55 -0.00531014 0.00027773 0.0085744
60 0.00172362 0.00279962 0.00821506
132 0.00894326 -0.00650153 -0.00259755
127 -0.00178896 -0.00409785 -0.00217536
200 -0.00844929 -0.00632553 0.00855642
199 0.00051712 -0.00096952 -5.386e-05
57 -0.00395354 0.00387463 0.00178599
129 -0.00619103 0.00833831 0.00607163
150 0.00265676 -0.00942716 4.579e-05
201 0.00511484 -0.0078618 -0.00820933
56 0.00798403 0.00915649 0.00898753
202 -0.00846112 -0.00022259 -0.00290179
154 0.0044076 0.00684755 -0.00023899
209 -0.00073068 0.00082107 0.00145825
62 0.00576591 0.00438481 0.00387137
37 0.00504212 0.00189144 0.00150494
112 -0.00681243 -0.00726918 -0.0048982
134 -0.00713718 0.00240369 0.00114071
109 -0.00262458 0.00042232 -0.00598711
137 0.00187247 0.00462002 0.00783755
206 0.0094655 0.00115027 -0.00551715
181 -0.001324 0.00714028 -0.00930103
59 -0.00813763 0.00468186 0.00305798
64 0.00898393 -0.00383732 0.00308353
131 -0.00647392 0.00094007 -0.00110424
136 -0.0076653 -0.00295757 0.00293027
208 0.00447011 -0.00587869 -0.009052
203 -0.00381831 -0.00570077 0.00055184
204 -0.00574163 0.00950113 0.00945587
10 -0.00058335 -0.00111029 0.0073267
14 0.00398527 -0.0077419 0.00815669
61 0.00594507 0.00695652 0.00880912
86 -0.00366412 0.00016722 0.00281772
90 0.0094125 0.00532217 -0.00558663
133 -0.00549635 -0.00336109 0.00536829
205 -0.00849423 0.00405916 -0.00805242
158 0.002838 -0.00677308 0.00841448
41 0.00310257 -0.0010173 -0.00422369
66 0.00858536 -0.00303753 -0.00082486
162 0.00842238 0.00609087 -0.00358586
113 -0.00206123 0.00865427 0.00382737
210 0.00487857 0.00645883 -0.00618692
185 0.00796643 0.00700326 0.00746621
63 -0.00481065 0.00493683 0.0054588
68 0.01005268 0.00900018 0.00159773
138 0.00083186 0.0079925 0.00696512
140 -0.00756517 0.00063398 -0.00136453
135 0.00928437 -0.0007422 -0.00664062
212 0.00733902 -0.00155944 0.00420123
207 -0.00198155 -0.00592089 0.00817219
65 -0.00567056 -0.00645406 0.00088569
18 0.00456309 -0.00525479 -0.00210469
218 0 0 0
217 -0.0079335 -0.00874159 0.00862883
45 0.00701449 -0.00244667 -0.00750879
120 0.00301408 -0.00630509 -0.00496667
117 -0.00622491 0.00033603 -0.00313428
214 -0.00029772 -0.0077322 0.00401903
189 0.00702875 0.00143361 0.00039062
67 -0.00054958 0.00898052 0.00216832
70 0.00633387 0.0013751 0.00088796
139 0.00198722 0.00133823 0.0049704
142 -0.00817371 0.00137404 -0.00795494
216 0.00389002 0.00858964 0.00495404
211 0.0086299 -0.00433646 -0.00599196
72 -0.00041313 0.00283548 0.00660174
69 -0.00858142 -0.00237358 0.00212421
144 -0.00440902 0.00598853 0.00367351
94 -0.00028629 0.00211244 -0.00652166
141 -0.0053563 -0.00439504 0.00952367
166 -0.00509777 -0.00062552 -0.00750481
213 -0.00090048 -0.00783174 0.0040114
49 -0.00536178 0.00093885 -0.00758931
28 0.00303907 0.00857062 -0.00215028
121 0.00705909 -0.0060882 -0.00752244
100 0.00608914 0.00217691 0.00731677
193 0.00248699 0.00059463 0.00859757
172 -0.00744361 0.00437226 0.00330263
122 0.0041547 -0.00714443 -0.00483763
71 0.00747351 -0.00652264 -0.00068787
143 0.00293204 -0.00533149 -0.00034342
215 0.00814269 -0.00607823 -0.00064842
50 -0.00522863 -0.00796715 -0.00836061
52 -0.00878282 0.00272815 0.00562431
73 0.00543543 0.0018155 -0.00626882
145 -0.0016293 -0.00839745 0.00346991
124 -0.00852651 -0.00365032 -0.00880609
146 -0.00050879 -0.0012037 -0.00012688
