LAMMPS data file via write_data, version 3 Aug 2023, timestep = 1, units = metal

217 atoms
2 atom types

0.022701677580608336 16.29729832241958 xlo xhi
0.022701677580608336 16.29729832241958 ylo yhi
0.022701677580608336 16.29729832241958 zlo zhi

Atom Type Labels

1 Si
2 C

Masses

1 28.0855
2 12.011

Atoms # atomic

3 1 1.381307758123314 1.3782915643791946 1.391052279230051 0 0 0
75 1 6.802930028950641 1.3801826059104205 1.3855922185517375 0 0 0
147 1 12.224786718852004 1.381191862050969 1.3913910526868938 -1 0 0
148 1 13.585882642644417 2.7341173540115333 0.03494475258988182 -1 0 0
2 1 16.294986068478284 0.02501392886899212 0.0346728205698782 -1 0 0
4 1 2.7344270764576666 2.7382293059726353 0.03477945606227556 0 0 0
5 1 4.097149362655571 4.103244252740449 1.3819745608257668 0 0 0
76 1 8.162220911598723 2.7419129050028617 0.035357032719973286 -1 0 0
77 1 9.510091373872962 4.110191551527157 1.3954993116875387 -1 0 0
170 1 10.874007046841955 5.445992950144087 0.026533029348926818 -1 0 0
149 1 14.938808135913746 4.095213277636021 1.3913910505540092 -1 0 0
27 1 1.388576033585613 6.811391155046197 1.3820199444569605 0 0 0
26 1 0.024098863701181528 5.448117316539872 0.03491308373825654 0 0 0
99 1 6.828954637686602 6.799000439563045 1.3113966431202022 0 0 0
171 1 12.209808445581565 6.809908622744608 1.3954993116954684 -1 0 0
172 1 13.57808709221554 8.157779085557591 0.035357033117568486 -1 -1 0
7 1 4.097889435103954 1.3803234445328707 4.091351883643404 0 0 0
79 1 9.508115618876731 1.3795752261225809 4.091489611237494 -1 0 0
151 1 14.940392914385328 1.3796070847081585 4.091565554935102 -1 0 0
8 1 0.03314415366238079 2.746997129074484 2.745434185854712 0 0 0
9 1 1.4085636458333064 4.122624913186872 4.079438160504905 0 0 0
12 1 2.741929735776469 2.7455743787014955 5.439960392814863 0 0 0
80 1 5.451493407092922 2.7449998419348236 2.738467697827966 0 0 0
84 1 8.154720743625624 2.744491554509435 5.4442852860922555 -1 0 0
81 1 6.80317388838902 4.11207945539646 4.091501212894681 0 0 0
152 1 10.864625213599382 2.744785202144535 2.7433250834636715 -1 0 0
156 1 13.573349294190573 2.7466507059305973 5.438067281043315 -1 0 0
153 1 12.198041939296845 4.121958059509493 4.103721036631956 -1 0 0
34 1 0.03122310283492397 5.45569836417315 5.43989501055042 0 0 0
30 1 2.7915109686612194 5.505972876720306 2.748144772846667 0 0 0
31 1 4.203600851729934 6.918171126547038 4.034917374375435 0 0 0
102 1 8.149692984605526 5.485741244870784 2.743532529732592 -1 0 0
106 1 5.456735848061151 5.486173383568551 5.439269156093606 0 0 0
103 1 9.40246444860593 6.917535546769578 4.148182715920759 -1 0 0
178 1 10.814783594028784 5.505216405965782 5.43472661136905 -1 0 0
174 1 13.575214796658361 5.455374783349589 2.7433250819317836 -1 0 0
175 1 14.940424772197506 6.811884378660487 4.091489609959093 -1 0 0
11 1 1.3816561605490338 1.3817179607683396 6.791662989622589 0 0 0
83 1 6.803264432312247 1.3798569913901084 6.797225266827282 0 0 0
155 1 12.224913466318545 1.3774288393762821 6.791795976720429 -1 0 0
16 1 16.29554727791361 2.734375293740754 8.148524316025327 -1 0 -1
158 1 13.585624707717674 0.02445272413933994 8.148524317658547 -1 0 -1
38 1 2.73273649033589 5.446558609040496 8.156654231991501 0 0 -1
88 1 5.444688428371071 2.7421341105447135 8.147607344576297 0 0 -1
13 1 4.096754485445078 4.110760685573234 6.787744180257906 0 0 0
160 1 10.872207164275563 2.737455670375356 8.148151670735249 -1 0 -1
85 1 9.509369037277812 4.102344051684784 6.800870761451392 -1 0 0
157 1 14.942571161340508 4.095086534285197 6.791795975834155 -1 0 0
35 1 1.396482712951824 6.810280852609212 6.787745026048529 0 0 0
40 1 0.0277271472650957 8.15791820271704 8.147621112965306 0 -1 -1
107 1 6.7772876246641385 6.79892249941881 6.871827190606294 0 0 0
179 1 12.217655948923397 6.8106309632906346 6.8008707610526455 -1 0 0
182 1 13.582544331949096 5.447792838082661 8.14815167011506 -1 0 -1
20 1 2.7299792531540708 2.731848521114203 10.867134370626129 0 0 -1
15 1 4.088271168535881 1.3837925972699674 9.503829785294931 0 0 -1
90 1 5.4436559447053074 0.03445445882753152 10.868270722005652 0 0 -1
87 1 9.518763549535732 1.3755922864194725 9.503999629701033 -1 0 -1
92 1 8.16340089334314 2.7251158650841965 10.868353795298052 -1 0 -1
162 1 10.87704317554258 0.027232423859448948 10.867108534242455 -1 0 -1
159 1 14.94067708909735 1.379322913537197 9.507671146463665 -1 0 -1
164 1 13.586365538258638 2.7336344632486878 10.867904263692472 -1 0 -1
18 1 16.294887458339275 0.025112543378221348 10.868023677440036 -1 0 -1
17 1 1.374728689563524 4.088028548837376 9.508838657484478 0 0 -1
89 1 6.800898426479194 4.08083227707871 9.52225667377534 0 0 -1
110 1 8.163311705568786 5.439508755698463 8.182087488705594 -1 0 -1
161 1 12.231736971393445 4.088263031238354 9.507602154373744 -1 0 -1
42 1 16.292767576412572 5.4429568262677295 10.867108531773212 -1 0 -1
39 1 4.069990727624248 6.783894877495376 9.548307729199651 0 0 -1
112 1 5.429835414416513 8.144276909117922 8.230931719169144 0 -1 -1
111 1 9.520787170670733 6.799212829010486 9.530758210496613 -1 0 -1
184 1 10.880491244319094 8.156688294079707 8.18208748911404 -1 -1 -1
183 1 14.944407713806728 6.801236454345344 9.503999629527726 -1 0 -1
188 1 13.59488413386824 8.156599109316993 10.86835379585648 -1 -1 -1
19 1 1.3744703971140237 1.379846386563686 12.228609326719102 0 0 -1
91 1 6.803509972900626 1.379816539779707 12.22881595346046 0 0 -1
163 1 12.232209506417531 1.3792868297040695 12.22878513979807 -1 0 -1
46 1 2.7262419095494073 5.439873243691733 13.58429581154313 0 0 -1
114 1 5.4432729736313155 5.430604247944019 10.883921481031319 0 0 -1
21 1 4.08391868192414 4.078459405210514 12.234748280891484 0 0 -1
93 1 9.523443732713874 4.077861891378909 12.223041397379003 -1 0 -1
118 1 8.163880925375397 5.430415712278901 13.57342741467115 -1 0 -1
186 1 10.880843778286183 5.439156222258879 10.873263481146406 -1 0 -1
165 1 14.94071317117475 4.087790495500979 12.228785138348929 -1 0 -1
44 1 2.7164161315530926 8.1567336622475 10.884018826020672 0 -1 -1
43 1 1.364452339008783 6.797108031019424 12.234800203158567 0 0 -1
120 1 5.439615493080215 8.153974308034696 13.567710845973945 0 -1 -1
115 1 6.803357139584317 6.791375057305409 12.228833840805946 0 0 -1
116 1 8.16645584089896 8.153544158035976 10.889284352600933 -1 -1 -1
187 1 12.242138107750275 6.796556268546968 12.223041397570592 -1 0 -1
192 1 10.889584284771656 8.15611907325572 13.573427415633303 -1 -1 -1
22 1 2.7294065783413313 0.02804927849714263 13.59050735595827 0 0 -1
23 1 4.08791585616452 1.376452236780529 14.953443235207496 0 0 -1
96 1 5.443946015236 2.725547161069028 13.589276415713842 0 0 -1
95 1 9.518522607359715 1.38333425786663 14.953796528936257 -1 0 -1
94 1 8.16297834901423 0.03412943086181015 13.589305737891024 -1 0 -1
168 1 10.877249274778661 2.731263554345836 13.590757989840471 -1 0 -1
167 1 14.940423574097 1.3795764250025437 14.949701823523773 -1 0 -1
24 1 16.295120542352098 2.734022861831902 13.589771406919265 -1 0 -1
166 1 13.585977136238926 0.02487945632911189 13.589771410118054 -1 0 -1
25 1 1.3751459229384617 4.089012802877047 14.949820656011497 0 0 -1
98 1 5.443453281231369 5.439995855069097 16.2752283685615 0 0 -1
97 1 6.80634232695956 4.08113101870816 14.935467314489793 0 0 -1
169 1 12.232344541887764 4.08765545669206 14.949058372907302 -1 0 -1
190 1 13.588736443870886 5.442750724312636 13.590757988848015 -1 0 -1
28 1 2.725341898772283 8.157559094742792 16.275139329602492 0 -1 -1
47 1 4.0858003999819825 6.800085482917229 14.926921187952125 0 0 -1
100 1 8.175993624630383 8.14400637012218 16.226409315867617 -1 -1 -1
119 1 9.53655114605052 6.783448850960959 14.909624432712288 -1 0 -1
191 1 14.936665739777512 6.801477391340698 14.953796527696975 -1 0 -1
48 1 16.285870566456964 8.15702165049081 13.589305736589601 -1 -1 -1
29 1 4.084016107312877 9.54368483324108 1.311048665167838 0 -1 0
126 1 8.036585568989608 10.75166936604904 2.583596966290405 -1 -1 0
104 1 5.568330631623069 8.28341442762436 2.5835969670319585 0 -1 0
101 1 9.520999555560165 9.491045356631691 1.311396643747035 -1 -1 0
173 1 14.939817391106182 9.517069968076441 1.3855922195361954 -1 -1 0
50 1 0.027264061626958602 10.876014714359629 0.035267425350673384 0 -1 0
51 1 1.3955905862396518 12.224313729718602 1.395061218020787 0 -1 0
123 1 6.77631516040415 12.23598388833288 1.3110486646699393 0 -1 0
195 1 12.21675574289442 12.222850633885708 1.3819745646512374 -1 -1 0
52 1 2.7317739316796983 13.58822606475307 0.02628359467160917 0 -1 0
74 1 5.443985282398781 16.292735935732097 0.03526742454450543 0 -1 0
53 1 4.095686266405718 14.924409411135935 1.3950612167414926 0 -1 0
146 1 10.871882679186879 16.295901133361067 0.03491308755307429 -1 -1 0
125 1 9.508608839927764 14.931423962918112 1.3820199474418908 -1 -1 0
196 1 13.581770690581973 13.585572920465806 0.034779460293238126 -1 -1 0
197 1 14.9417084332536 14.938692239904226 1.3910522813187802 -1 -1 0
33 1 1.3973137348368434 9.517355876450852 4.091314082426934 0 -1 0
32 1 0.030117443458364684 8.165682408908152 2.738410427626641 0 -1 0
58 1 0.029838822116193205 10.868655613739136 5.444280716171686 0 -1 0
54 1 2.770913086034898 10.864197568046409 2.7434696704807515 0 -1 0
36 1 2.7712859984807303 8.170854277248406 5.439206687241823 0 -1 0
105 2 6.802349003684769 9.517650994042704 3.358547090547075 0 -1 0
218 2 6.802503229849409 9.517496768496118 4.824217260208047 0 -1 0
176 1 10.834258751279561 8.170307010676026 2.7435325306366787 -1 -1 0
202 1 10.83382661361934 10.863264149362939 5.439269157656737 -1 -1 0
198 1 13.575000155676081 10.868506590040331 2.738467700420305 -1 -1 0
177 1 12.207920540889383 9.516826108232673 4.0915012136891535 -1 -1 0
180 1 13.5755084460578 8.165279256334284 5.444285285700643 -1 -1 0
56 1 0.030432014012232188 13.578661057486205 2.7432127878071584 0 -1 0
55 1 4.202946971846192 12.11705302412579 4.147949457340791 0 -1 0
60 1 2.790878509803526 13.529121490132448 5.434808368503002 0 -1 0
128 1 5.4558024265172 13.549086910565828 2.7434696698348255 0 -1 0
132 1 8.149145719157543 13.548714000056277 5.439206687675791 -1 -1 0
127 1 9.401828869008398 12.11639914473053 4.034917376102075 -1 -1 0
200 1 10.814027119381329 13.528489029097905 2.748144776514247 -1 -1 0
204 1 13.574425620736214 13.578070264370632 5.439960394958047 -1 -1 0
199 1 14.939676553771601 12.222110563579989 4.091351885476974 -1 -1 0
57 1 1.4078537875343162 14.912146211519604 4.103413901694154 0 -1 0
10 1 0.032816613973322285 16.28718338629744 5.438114129571434 0 -1 0
6 1 2.74133894043179 16.289567984550885 2.743212786498793 0 -1 0
129 1 6.80264411930069 14.922686261972256 4.091314081377717 0 -1 0
78 1 8.154317587131906 16.289882554941904 2.738410429087673 -1 -1 0
82 1 5.451344386473616 16.29016117827928 5.444280714905046 0 -1 0
154 1 10.864301634767624 16.288776897252077 5.439895012507993 -1 -1 0
201 1 12.197375084462092 14.911436352904115 4.079438162796712 -1 -1 0
150 1 13.573002868482545 16.286855844911315 2.745434187760535 -1 -1 0
37 1 4.084265430641387 9.491378242187501 6.871642965565396 0 -1 0
130 1 5.568196968268322 10.751803029053002 5.598897512584521 0 -1 0
108 1 8.036940527063914 8.283059469709103 5.598693739228924 -1 -1 0
109 1 9.521077497628909 9.542712372084537 6.8718271911173545 -1 -1 0
181 1 14.940143007464725 9.516735569739247 6.797225267531919 -1 -1 0
59 1 1.3881116067019623 12.223140759167483 6.800681180784087 0 -1 0
131 1 6.828621754610272 12.235734567690603 6.871642965646104 0 -1 0
203 1 12.209239312492738 12.223245514016284 6.78774418075671 -1 -1 0
206 1 13.577865889159797 10.875311574367096 8.147607346416388 -1 -1 -1
64 1 0.02346169190804692 13.585645798455262 8.14826706266934 0 -1 -1
14 1 2.7343542041499154 16.29653830964968 8.148267061101736 0 -1 -1
61 1 4.096859241929106 14.931888393808181 6.800681179554655 0 -1 0
86 1 8.162081800000875 16.292272853136502 8.147621113458104 -1 -1 -1
133 1 9.509719146270308 14.923517285285465 6.787745025910859 -1 -1 0
208 1 10.873441390694772 13.587263510007878 8.156654233266163 -1 -1 -1
205 1 14.938282039726255 14.938343840756414 6.791662990892089 -1 -1 0
41 1 1.3666430434570844 9.51406020440762 9.52210077992963 0 -1 -1
113 1 6.802718217359387 9.517281781042808 9.556591148221223 0 -1 -1
185 1 12.239167721456598 9.51910157553325 9.522256674266515 -1 -1 -1
62 1 2.72506098878849 10.877087185836325 8.182093463603692 0 -1 -1
63 1 4.085185383228168 12.234814617681137 9.53031323783161 0 -1 -1
134 1 8.17572308858666 10.890164584088383 8.230931718848856 -1 -1 -1
135 1 9.536105120878547 12.250009271674617 9.54830772871684 -1 -1 -1
66 1 16.285545540615114 10.876344058196256 10.86827072274127 -1 -1 -1
207 1 14.936207402422063 12.231728835555854 9.503829787173244 -1 -1 -1
65 1 1.3746738516824044 14.945326151131743 9.507352788651723 0 -1 -1
136 1 5.442912814680729 13.594939012574219 8.18209346387907 0 -1 -1
137 1 6.8059397985065955 14.95335695632491 9.522100779924553 0 -1 -1
209 1 12.231971452102307 14.945271311658127 9.508838658700355 -1 -1 -1
212 1 13.588151478516897 13.590020749360942 10.867134374355349 -1 -1 -1
45 1 4.076885572938192 9.517407129632996 12.22874305886491 0 -1 -1
117 1 9.528624940312133 9.516642859786765 12.228833841761414 -1 -1 -1
189 1 14.940183458650438 9.516490029984165 12.228815954160362 -1 -1 -1
67 1 1.3637411936099189 12.23691903419127 12.222499490471947 0 -1 -1
70 1 2.715894143310619 10.877710964890916 13.573394838523798 0 -1 -1
138 1 5.439125472878037 10.88087452704604 10.889455217353607 0 -1 -1
139 1 6.802592869878881 12.24311442609127 12.228743060048174 0 -1 -1
142 1 8.166025688195823 10.880384503736073 13.567710848234421 -1 -1 -1
210 1 10.889395749795586 10.876727027016202 10.883921482361654 -1 -1 -1
211 1 12.241540592638044 12.236081318957133 12.234748283061776 -1 -1 -1
68 1 2.7254104013118967 13.594589599697516 10.873115782116072 0 -1 -1
69 1 4.083080967683076 14.95625880624143 12.222499489750469 0 -1 -1
144 1 5.442289032919411 13.604105854159268 13.573394839335535 0 -1 -1
140 1 8.163266338474683 13.60358386766568 10.88401882762959 -1 -1 -1
141 1 9.522891970171504 14.95554765981458 12.234800205151675 -1 -1 -1
216 1 10.880126753513807 13.593758088067299 13.58429581625946 -1 -1 -1
213 1 14.940153614472186 14.945529605534542 12.228609328941847 -1 -1 -1
49 1 1.3663983545375062 9.520090671020725 14.935290157920477 0 -1 -1
121 1 6.802705309864715 9.517294685227366 14.901086052437577 0 -1 -1
193 1 12.23886897821 9.513657671236905 14.935467316099231 -1 -1 -1
122 1 5.4293250076040085 10.89067498664632 16.226192650554964 0 -1 -1
71 1 4.069035958786846 12.250964037923756 14.909097863668793 0 -1 -1
143 1 9.519914512872004 12.234199596424663 14.926921191404675 -1 -1 -1
194 1 10.880004140797915 10.876546714608105 16.27522837176903 -1 -1 -1
214 1 13.594452835884043 10.876053984859405 13.589276418101004 -1 -1 -1
215 1 14.943547761029812 12.232084143127016 14.953443237659323 -1 -1 -1
73 1 1.3737667457315819 14.946233253664898 14.948416849658798 0 -1 -1
145 1 6.799909326463343 14.953601643072172 14.935290158295736 0 -1 -1
124 1 8.16244089998798 13.594658098016298 16.275139331721682 -1 -1 -1
217 1 12.230987194537805 14.944854075164658 14.949820660307413 -1 -1 -1
72 1 16.291950720058914 13.59059342144596 13.590507357846972 -1 -1 -1

Velocities

3 -0.00406333 -0.00353237 -0.00363648
75 -0.00787999 0.00167395 -0.0039007
147 -0.00714741 0.00791085 -0.00326801
148 0.00830141 -0.00352506 -0.0014993
2 -0.00853119 0.0079052 -0.00759242
4 -0.00279926 -0.00875226 -0.00340964
5 -0.00843469 -0.0013452 -0.007991
76 0.00190369 0.00280262 -0.00022071
77 -0.00617793 0.00040335 -0.00405917
170 0.00459597 -0.00597629 0.00172515
149 -0.00619746 9.583e-05 0.00442924
27 -0.00588445 -0.00927935 -0.00159461
26 0.00429692 -0.00325557 -0.0061392
99 0.00310103 0.00624001 0.0034116
171 0.00668213 -0.0064265 -0.00226321
172 -0.00744361 0.00437226 0.00330263
7 0.00768767 0.00678974 -0.0055655
79 -0.00734611 0.00945368 -0.00029435
151 0.00272375 -0.00684559 -0.00682381
8 0.00970398 -0.00715009 -0.00695193
9 -0.00102253 -0.00285621 -0.006759
12 -0.00424323 0.00174544 -0.00201591
80 -0.00783169 0.00424526 -0.00736396
84 0.00556441 0.00138556 -0.00713027
81 -0.00299029 -0.00460852 -1.543e-05
152 0.00826736 0.00640025 0.00066594
156 -0.00091725 -0.00471783 0.00725416
153 -0.00878153 -0.00129077 0.00909023
34 -0.00084266 0.00241884 -0.00548255
30 -0.00071474 0.00187717 0.00728958
31 0.00680105 -0.00019619 0.00782804
102 0.00759932 -0.0089049 0.0092494
106 -0.00097277 0.00881959 0.0009355
103 0.00602571 -0.00302505 -0.00286079
178 0.00655469 0.00876856 0.00351638
174 0.00540244 0.00866104 -0.00299408
175 0.00154645 -0.00507736 0.0065694
11 -0.0067877 0.00167954 0.00500087
83 0.00240721 0.00704561 -0.00443444
155 -0.00671745 -0.00394795 -0.00744827
16 0.00281905 -0.00903819 -0.00036903
158 0.002838 -0.00677308 0.00841448
38 0.00371553 -0.00708878 -0.00014866
88 -0.00183417 0.00466772 0.00199249
13 -0.00676235 0.00785297 0.00056532
160 0.00705241 0.00605249 -0.00102001
85 0.00804959 -0.00160529 -0.00359205
157 0.0025788 0.0076632 0.00121167
35 0.00283412 0.00712981 0.00097312
40 -0.00411157 0.00689631 0.00084368
107 0.00010222 0.00095231 0.00066985
179 -0.00341052 -0.00212899 0.00235867
182 0.00312973 -0.00271784 -0.00597278
20 -0.0073885 -0.00730703 -0.00128593
15 -0.00233984 0.00179641 -0.00378094
90 0.0094125 0.00532217 -0.00558663
87 0.00289942 -0.00602422 -0.00371074
92 -0.00656402 -0.00352354 0.00054311
162 0.00842238 0.00609087 -0.00358586
159 -0.0087181 -0.00942526 -0.00093578
164 -0.00839431 -0.00757353 0.00437914
18 0.00456309 -0.00525479 -0.00210469
17 -0.004316 -0.00227567 -0.00899233
89 -0.00644113 -0.00685582 0.00891929
110 0.00290563 0.00856024 -0.00926269
161 0.00573732 0.00311596 0.0077115
42 -0.00584932 0.00721722 0.00265963
39 0.00303036 0.00203013 -0.00855712
112 -0.00681243 -0.00726918 -0.0048982
111 0.0075285 -0.0089786 -0.00725125
184 0.00566158 0.00716911 -0.0040912
183 -0.00519164 0.00754539 0.00371374
188 -0.00335314 -0.00383798 0.00286881
19 0.00481547 0.00365527 0.00869469
91 -0.00020142 -0.00332076 -0.00111535
163 -0.00516761 0.00232305 -0.00718404
46 -0.00486393 0.00739862 -0.00335936
114 -0.00546301 -0.00495563 0.0066283
21 0.00132531 -0.00082497 0.00120295
93 -0.00500442 0.00675413 -0.00443328
118 -0.00284507 0.0015599 0.00511593
186 0.00399084 -0.00764174 -0.00521148
165 -0.00135387 0.00193477 -0.00637006
44 -0.00319947 -0.00077155 0.00240055
43 0.0047468 -0.00098162 -0.00206665
120 0.00301408 -0.00630509 -0.00496667
115 0.00256079 -0.00095266 0.00338203
116 0.00402684 -0.00785159 0.0042008
187 -0.00365771 -0.00499761 -0.00109261
192 -0.006089 0.00901053 0.00029529
22 -0.00363987 -0.00765779 -0.00520564
23 -0.00730561 -0.00884811 0.00217875
96 -0.00532583 0.00092928 0.00590616
95 -0.00875725 0.00390435 0.00827817
94 -0.00028629 0.00211244 -0.00652166
168 0.00109825 -0.00787254 0.00327386
167 0.00706004 0.00199309 0.00649948
24 0.00807484 0.00182483 0.00604555
166 -0.00509777 -0.00062552 -0.00750481
25 0.00304894 -0.00619983 0.00842208
98 -0.00024491 0.00695663 0.00104414
97 -0.00878407 0.00203126 0.00152309
169 -0.00261656 0.00918415 0.00935814
190 0.00692673 0.00837743 -0.00356754
28 0.00303907 0.00857062 -0.00215028
47 0.00612353 0.00919686 0.0014132
100 0.00608914 0.00217691 0.00731677
119 0.00029746 0.00390844 -0.0051507
191 0.00152629 -0.00507255 -0.00312892
48 0.00470147 -0.00132163 -0.00372148
29 0.0093571 -0.00554755 0.0020986
126 0.00313897 -0.00274452 0.00707543
104 -0.00626244 -0.00908813 0.00585955
101 -0.00372034 0.00500545 0.00899701
173 0.00572019 0.00287204 -0.0008568
50 -0.00522863 -0.00796715 -0.00836061
51 -0.00844899 -0.00472717 -0.00082013
123 -0.0032761 -0.00258405 -0.00374415
195 -0.00623489 0.00447292 -0.00530425
52 -0.00878282 0.00272815 0.00562431
74 0.00516234 0.00793376 0.00368211
53 0.00173556 0.00206357 -0.00676957
146 -0.00050879 -0.0012037 -0.00012688
125 -0.00133191 0.00287814 -0.00552286
196 0.00028382 0.00454829 -0.0029135
197 0.00163063 -0.00119839 -0.00645447
33 0.00144638 -0.00326052 -0.00039707
32 -0.00288568 0.00124874 -0.00097077
58 0.00039058 -0.00471236 -0.00521576
54 -0.00223862 -0.00079173 0.00071676
36 0.00215294 -0.00785828 0.00624175
105 -0.00689485 -0.00598556 -0.00315148
218 0 0 0
176 0.00987031 0.0041543 0.00088977
202 -0.00846112 -0.00022259 -0.00290179
198 0.00040352 0.0022726 -0.00195606
177 0.00284456 0.00483136 -0.00824397
180 -0.00782482 -0.00892802 -0.00863908
56 0.00798403 0.00915649 0.00898753
55 -0.00531014 0.00027773 0.0085744
60 0.00172362 0.00279962 0.00821506
128 -0.00611098 0.00163587 -0.00160768
132 0.00894326 -0.00650153 -0.00259755
127 -0.00178896 -0.00409785 -0.00217536
200 -0.00844929 -0.00632553 0.00855642
204 -0.00574163 0.00950113 0.00945587
199 0.00051712 -0.00096952 -5.386e-05
57 -0.00395354 0.00387463 0.00178599
10 -0.00058335 -0.00111029 0.0073267
6 0.0036627 0.00361769 0.00131818
129 -0.00619103 0.00833831 0.00607163
78 0.00805502 -0.00639569 -0.00482161
82 0.00942509 0.00277025 0.00881879
154 0.0044076 0.00684755 -0.00023899
201 0.00511484 -0.0078618 -0.00820933
150 0.00265676 -0.00942716 4.579e-05
37 0.00504212 0.00189144 0.00150494
130 -0.00320253 0.00211904 -0.00909396
108 0.00703722 0.00936758 -0.00125585
109 -0.00262458 0.00042232 -0.00598711
181 -0.001324 0.00714028 -0.00930103
59 -0.00813763 0.00468186 0.00305798
131 -0.00647392 0.00094007 -0.00110424
203 -0.00381831 -0.00570077 0.00055184
206 0.0094655 0.00115027 -0.00551715
64 0.00898393 -0.00383732 0.00308353
14 0.00398527 -0.0077419 0.00815669
61 0.00594507 0.00695652 0.00880912
86 -0.00366412 0.00016722 0.00281772
133 -0.00549635 -0.00336109 0.00536829
208 0.00447011 -0.00587869 -0.009052
205 -0.00849423 0.00405916 -0.00805242
41 0.00310257 -0.0010173 -0.00422369
113 -0.00206123 0.00865427 0.00382737
185 0.00796643 0.00700326 0.00746621
62 0.00576591 0.00438481 0.00387137
63 -0.00481065 0.00493683 0.0054588
134 -0.00713718 0.00240369 0.00114071
135 0.00928437 -0.0007422 -0.00664062
66 0.00858536 -0.00303753 -0.00082486
207 -0.00198155 -0.00592089 0.00817219
65 -0.00567056 -0.00645406 0.00088569
136 -0.0076653 -0.00295757 0.00293027
137 0.00187247 0.00462002 0.00783755
209 -0.00073068 0.00082107 0.00145825
212 0.00733902 -0.00155944 0.00420123
45 0.00701449 -0.00244667 -0.00750879
117 -0.00622491 0.00033603 -0.00313428
189 0.00702875 0.00143361 0.00039062
67 -0.00054958 0.00898052 0.00216832
70 0.00633387 0.0013751 0.00088796
138 0.00083186 0.0079925 0.00696512
139 0.00198722 0.00133823 0.0049704
142 -0.00817371 0.00137404 -0.00795494
210 0.00487857 0.00645883 -0.00618692
211 0.0086299 -0.00433646 -0.00599196
68 0.01005268 0.00900018 0.00159773
69 -0.00858142 -0.00237358 0.00212421
144 -0.00440902 0.00598853 0.00367351
140 -0.00756517 0.00063398 -0.00136453
141 -0.0053563 -0.00439504 0.00952367
216 0.00389002 0.00858964 0.00495404
213 -0.00090048 -0.00783174 0.0040114
49 -0.00536178 0.00093885 -0.00758931
121 0.00705909 -0.0060882 -0.00752244
193 0.00248699 0.00059463 0.00859757
122 0.0041547 -0.00714443 -0.00483763
71 0.00747351 -0.00652264 -0.00068787
143 0.00293204 -0.00533149 -0.00034342
194 -0.00187823 -0.0010378 -0.00028067
214 -0.00029772 -0.0077322 0.00401903
215 0.00814269 -0.00607823 -0.00064842
73 0.00543543 0.0018155 -0.00626882
145 -0.0016293 -0.00839745 0.00346991
124 -0.00852651 -0.00365032 -0.00880609
217 -0.0079335 -0.00874159 0.00862883
72 -0.00041313 0.00283548 0.00660174
