ITEM: TIMESTEP
1
ITEM: NUMBER OF ATOMS
217
ITEM: BOX BOUNDS
0.027376266105042305 16.29262373389485
0.027376266105042305 16.29262373389485
0.027376266105042305 16.29262373389485
ITEM: ATOMS id type x y z 
3 1 1.38964 1.38699 1.37273 
75 1 6.80394 1.38536 1.37666 
152 1 10.8792 2.72449 2.72256 
147 1 12.2336 1.36541 1.37316 
2 1 0.0280066 16.2916 16.286 
4 1 2.75099 2.74867 16.2908 
5 1 4.10993 4.11323 1.38193 
102 1 8.15199 5.41823 2.66189 
77 1 9.52833 4.06421 1.34066 
149 1 14.9542 4.08595 1.37316 
174 1 13.5951 5.44036 2.72256 
27 1 1.40165 6.8087 1.38114 
98 1 5.45757 5.47901 0.0307163 
99 1 6.78702 6.87163 1.39853 
171 1 12.2554 6.79126 1.34066 
6 1 2.74113 0.0346778 2.7324 
7 1 4.10677 1.39213 4.08284 
82 1 5.45918 16.2914 5.43119 
79 1 9.51919 1.37524 4.08164 
84 1 8.17437 2.74291 5.43885 
151 1 14.9517 1.36793 4.07884 
8 1 0.0483737 2.74346 2.73787 
9 1 1.41911 4.11604 4.0789 
80 1 5.464 2.75718 2.73987 
81 1 6.82608 4.12136 4.09511 
153 1 12.2496 4.06997 4.07877 
30 1 2.79498 5.49673 2.7499 
31 1 4.19042 6.89169 4.07223 
103 1 9.61051 6.70907 3.9447 
180 1 13.5767 8.14522 5.43885 
175 1 14.9443 6.8004 4.08164 
34 1 0.047427 5.45366 5.43563 
106 1 5.56147 5.56629 5.47311 
11 1 1.40707 1.38681 6.77698 
16 1 0.0461547 2.73076 8.13926 
83 1 6.8164 1.3823 6.78709 
155 1 12.2325 1.36339 6.78647 
156 1 13.5999 2.71964 5.439 
12 1 2.77561 2.76721 5.44082 
13 1 4.15736 4.1495 6.76831 
88 1 5.46704 2.75202 8.13629 
85 1 9.5317 4.08555 6.80616 
178 1 10.9014 5.41821 5.44392 
157 1 14.9562 4.0871 6.78647 
44 1 2.73913 8.16138 10.8549 
35 1 1.41154 6.81368 6.78177 
38 1 2.76403 5.45622 8.13724 
107 1 6.93892 6.91934 6.91131 
40 1 0.0415227 8.1555 8.13846 
179 1 12.234 6.78789 6.80616 
15 1 4.10552 1.38552 9.48328 
87 1 9.52043 1.3665 9.50082 
92 1 8.16968 2.72381 10.864 
160 1 10.8851 2.72022 8.1514 
159 1 14.9491 1.37048 9.48924 
17 1 1.40279 4.09297 9.48855 
42 1 0.0430586 5.44029 10.8518 
20 1 2.75044 2.73496 10.8482 
89 1 6.81609 4.08817 9.51742 
161 1 12.2437 4.07588 9.50804 
182 1 13.5994 5.43445 8.1514 
39 1 4.10069 6.80596 9.51146 
114 1 5.45641 5.44749 10.8653 
184 1 10.8805 8.11313 8.20111 
110 1 8.20645 5.43908 8.20111 
111 1 9.54301 6.77658 9.57043 
188 1 13.5958 8.14991 10.864 
183 1 14.9531 6.79916 9.50082 
164 1 13.5993 2.72024 10.8572 
19 1 1.38896 1.38106 12.2021 
24 1 0.0394402 2.73185 13.5696 
22 1 2.74097 0.0308302 13.5619 
91 1 6.80357 1.37362 12.2101 
163 1 12.2358 1.3668 12.2094 
168 1 10.8833 2.71657 13.5745 
48 1 0.034389 8.15764 13.5644 
21 1 4.09846 4.0906 12.2133 
96 1 5.45494 2.73916 13.5703 
93 1 9.52299 4.07325 12.2308 
186 1 10.9018 5.41781 10.8933 
165 1 14.9528 4.08374 12.2094 
190 1 13.603 5.43624 13.5745 
43 1 1.38942 6.80124 12.2102 
46 1 2.74477 5.44797 13.5694 
115 1 6.80623 6.79822 12.2298 
116 1 8.16604 8.15354 10.8873 
187 1 12.2463 6.7966 12.2308 
23 1 4.09387 1.38866 14.9238 
74 1 5.44756 0.0347409 16.2801 
76 1 8.15863 2.72136 16.2683 
95 1 9.52093 1.36371 14.9248 
167 1 14.9438 1.37582 14.9226 
148 1 13.5935 2.72608 16.2865 
25 1 1.39297 4.09204 14.9272 
97 1 6.80189 4.09978 14.9361 
169 1 12.2425 4.07706 14.9218 
170 1 10.8843 5.43531 16.2672 
26 1 0.0455742 5.4481 16.289 
47 1 4.09398 6.80944 14.9264 
118 1 8.16644 5.44092 13.5785 
119 1 9.51881 6.80078 14.9315 
192 1 10.8787 8.15315 13.5785 
191 1 14.9559 6.79865 14.9248 
32 1 0.0324428 8.16012 2.72674 
29 1 4.08022 9.5569 1.34373 
101 1 9.44796 9.53257 1.39853 
194 1 10.8406 10.862 0.0307163 
176 1 10.9014 8.16759 2.66189 
173 1 14.9342 9.51564 1.37666 
54 1 2.72566 10.8869 2.70795 
51 1 1.36968 12.2395 1.36113 
123 1 6.76269 12.2394 1.34373 
195 1 12.2064 12.2097 1.38193 
196 1 13.5709 13.5686 16.2908 
53 1 4.08013 14.9499 1.36113 
128 1 5.43268 13.5939 2.70795 
78 1 8.15947 16.2871 2.72674 
125 1 9.51089 14.9179 1.38114 
197 1 14.9326 14.93 1.37273 
33 1 1.39261 9.51794 4.07342 
36 1 2.77129 8.17667 5.42505 
108 1 7.87203 8.44756 4.33679 
105 2 6.59178 9.72781 3.72916 
126 1 7.93675 10.794 2.76345 
104 1 5.52554 8.38284 2.76345 
130 1 5.63023 10.6894 5.15498 
198 1 13.5624 10.8556 2.73987 
177 1 12.1982 9.49351 4.09511 
58 1 0.0281595 10.8604 5.43119 
55 1 4.13452 12.1851 4.05861 
60 1 2.76721 13.5524 5.42003 
132 1 8.14292 13.5483 5.42505 
127 1 9.4279 12.1292 4.07223 
200 1 10.8229 13.5246 2.7499 
199 1 14.9275 12.2128 4.08284 
57 1 1.39728 14.9223 4.08175 
129 1 6.80164 14.927 4.07342 
150 1 13.5761 16.2712 2.73787 
201 1 12.2035 14.9005 4.0789 
56 1 16.2849 13.5785 2.7324 
202 1 10.7533 10.7581 5.47311 
154 1 10.8659 16.2722 5.43563 
209 1 12.2266 14.9168 9.48855 
62 1 2.78287 10.8526 8.0996 
37 1 4.18993 9.5311 6.71358 
112 1 5.45302 8.18853 8.18716 
134 1 8.13105 10.8666 8.18716 
109 1 9.40025 9.38067 6.91131 
137 1 6.8012 14.9134 9.47692 
206 1 13.5676 10.8525 8.13629 
181 1 14.9373 9.50318 6.78709 
59 1 1.39904 12.211 6.77554 
64 1 0.0348312 13.5656 8.1306 
131 1 6.78849 12.1297 6.71358 
136 1 5.46696 13.5367 8.0996 
208 1 10.8634 13.5556 8.13724 
203 1 12.1701 12.1622 6.76831 
204 1 13.5524 13.544 5.44082 
10 1 0.0408708 16.2787 5.43723 
14 1 2.754 16.2848 8.1306 
61 1 4.10855 14.9205 6.77554 
86 1 8.16408 16.2781 8.13846 
90 1 5.45532 16.2857 10.8369 
133 1 9.50591 14.908 6.78177 
205 1 14.9328 14.9125 6.77698 
158 1 13.5888 16.2734 8.13926 
41 1 1.40617 9.51839 9.47692 
66 1 0.0339045 10.8643 10.8369 
162 1 10.8793 16.2765 10.8518 
113 1 6.79466 9.52493 9.55749 
210 1 10.8721 10.8632 10.8653 
185 1 12.2314 9.50349 9.51742 
63 1 4.10024 12.2194 9.48128 
68 1 2.74138 13.5782 10.8376 
138 1 5.43432 10.8853 10.8772 
140 1 8.15821 13.5805 10.8549 
135 1 9.51362 12.2189 9.51146 
212 1 13.5846 13.5691 10.8482 
207 1 14.9341 12.2141 9.48328 
65 1 1.38775 14.9318 9.48221 
18 1 0.036054 16.2835 10.8475 
218 2 8.08683 8.23275 6.13534 
217 1 12.2276 14.9266 14.9272 
45 1 4.08351 9.51793 12.218 
120 1 5.44408 8.16267 13.5684 
117 1 9.52137 9.51336 12.2298 
214 1 13.5804 10.8646 13.5703 
189 1 14.946 9.51602 12.2101 
67 1 1.37762 12.2287 12.1956 
70 1 2.72286 10.8762 13.5606 
139 1 6.80166 12.2361 12.218 
142 1 8.15692 10.8755 13.5684 
216 1 10.8716 13.5748 13.5694 
211 1 12.229 12.2211 12.2133 
72 1 16.2888 13.5786 13.5619 
69 1 4.09086 14.942 12.1956 
144 1 5.44342 13.5967 13.5606 
94 1 8.16195 16.2852 13.5644 
141 1 9.51835 14.9302 12.2102 
166 1 13.5877 16.2801 13.5696 
213 1 14.9385 14.9306 12.2021 
49 1 1.37781 9.51784 14.9237 
28 1 2.73868 8.16512 16.2778 
121 1 6.79466 9.52493 14.9162 
100 1 8.151 8.16858 16.2715 
193 1 12.2198 9.5177 14.9361 
172 1 13.5982 8.16096 16.2683 
122 1 5.42369 10.8959 16.2413 
71 1 4.07113 12.2485 14.9006 
143 1 9.51015 12.2256 14.9264 
215 1 14.9309 12.2257 14.9238 
50 1 16.2848 10.872 16.2801 
52 1 2.72493 13.5947 16.2711 
73 1 1.37497 14.9446 14.9138 
145 1 6.80175 14.9418 14.9237 
124 1 8.15446 13.5809 16.2778 
146 1 10.8715 16.274 16.289 
ITEM: TIMESTEP
2
ITEM: NUMBER OF ATOMS
217
ITEM: BOX BOUNDS
0.027376266105042305 16.29262373389485
0.027376266105042305 16.29262373389485
0.027376266105042305 16.29262373389485
ITEM: ATOMS id type x y z 
3 1 1.38965 1.38697 1.37271 
75 1 6.80396 1.38535 1.37663 
152 1 10.8792 2.72447 2.72254 
147 1 12.2337 1.36539 1.37314 
2 1 0.028024 16.2916 16.286 
4 1 2.751 2.74865 16.2908 
5 1 4.10995 4.11321 1.38191 
102 1 8.15201 5.41822 2.66187 
77 1 9.52834 4.06419 1.34064 
149 1 14.9542 4.08593 1.37314 
174 1 13.5951 5.44034 2.72254 
27 1 1.40167 6.80868 1.38112 
98 1 5.45759 5.47899 0.0306951 
99 1 6.78704 6.87161 1.39851 
171 1 12.2554 6.79124 1.34064 
6 1 2.74115 0.0346597 2.73238 
7 1 4.10678 1.39211 4.08282 
82 1 5.4592 16.2914 5.43117 
79 1 9.51921 1.37522 4.08162 
84 1 8.17439 2.74289 5.43882 
151 1 14.9517 1.36791 4.07881 
8 1 0.048391 2.74344 2.73785 
9 1 1.41913 4.11602 4.07888 
80 1 5.46402 2.75716 2.73985 
81 1 6.8261 4.12134 4.09509 
153 1 12.2496 4.06996 4.07875 
30 1 2.79499 5.49672 2.74988 
31 1 4.19044 6.89167 4.07221 
103 1 9.61053 6.70905 3.94468 
180 1 13.5767 8.1452 5.43882 
175 1 14.9444 6.80038 4.08162 
34 1 0.0474443 5.45364 5.4356 
106 1 5.56148 5.56627 5.47309 
11 1 1.40709 1.38679 6.77696 
16 1 0.046172 2.73074 8.13924 
83 1 6.81642 1.38228 6.78707 
155 1 12.2325 1.36337 6.78645 
156 1 13.6 2.71962 5.43898 
12 1 2.77563 2.7672 5.4408 
13 1 4.15737 4.14948 6.76829 
88 1 5.46705 2.75201 8.13627 
85 1 9.53171 4.08554 6.80613 
178 1 10.9014 5.41819 5.4439 
157 1 14.9562 4.08708 6.78645 
44 1 2.73915 8.16136 10.8549 
35 1 1.41156 6.81366 6.78175 
38 1 2.76405 5.45621 8.13722 
107 1 6.93894 6.91932 6.91129 
40 1 0.04154 8.15549 8.13843 
179 1 12.234 6.78787 6.80613 
15 1 4.10554 1.3855 9.48326 
87 1 9.52045 1.36649 9.50079 
92 1 8.16969 2.72379 10.864 
160 1 10.8852 2.7202 8.15138 
159 1 14.9491 1.37046 9.48922 
17 1 1.4028 4.09295 9.48852 
42 1 0.043076 5.44027 10.8518 
20 1 2.75046 2.73494 10.8482 
89 1 6.81611 4.08815 9.5174 
161 1 12.2437 4.07587 9.50802 
182 1 13.5994 5.43443 8.15138 
39 1 4.10071 6.80595 9.51144 
114 1 5.45642 5.44747 10.8653 
184 1 10.8805 8.11312 8.20109 
110 1 8.20647 5.43906 8.20109 
111 1 9.54303 6.77656 9.57041 
188 1 13.5958 8.14989 10.864 
183 1 14.9531 6.79914 9.50079 
164 1 13.5994 2.72023 10.8572 
19 1 1.38898 1.38105 12.202 
24 1 0.0394575 2.73184 13.5696 
22 1 2.74099 0.0308121 13.5619 
91 1 6.80359 1.3736 12.2101 
163 1 12.2359 1.36678 12.2093 
168 1 10.8834 2.71655 13.5745 
48 1 0.0344064 8.15762 13.5643 
21 1 4.09848 4.09058 12.2133 
96 1 5.45496 2.73914 13.5703 
93 1 9.52301 4.07323 12.2308 
186 1 10.9018 5.41779 10.8933 
165 1 14.9528 4.08372 12.2093 
190 1 13.603 5.43622 13.5745 
43 1 1.38944 6.80122 12.2102 
46 1 2.74479 5.44795 13.5693 
115 1 6.80625 6.7982 12.2298 
116 1 8.16606 8.15353 10.8873 
187 1 12.2464 6.79658 12.2308 
23 1 4.09389 1.38864 14.9238 
74 1 5.44758 0.0347228 16.28 
76 1 8.15865 2.72134 16.2682 
95 1 9.52095 1.36369 14.9248 
167 1 14.9438 1.3758 14.9226 
148 1 13.5935 2.72606 16.2865 
25 1 1.39299 4.09202 14.9272 
97 1 6.80191 4.09976 14.936 
169 1 12.2425 4.07704 14.9218 
170 1 10.8843 5.43529 16.2672 
26 1 0.0455916 5.44808 16.2889 
47 1 4.094 6.80942 14.9264 
118 1 8.16646 5.4409 13.5785 
119 1 9.51883 6.80076 14.9315 
192 1 10.8787 8.15313 13.5785 
191 1 14.9559 6.79863 14.9248 
32 1 0.0324602 8.1601 2.72672 
29 1 4.08024 9.55688 1.34371 
101 1 9.44798 9.53255 1.39851 
194 1 10.8406 10.862 0.0306951 
176 1 10.9014 8.16758 2.66187 
173 1 14.9342 9.51562 1.37663 
54 1 2.72568 10.8869 2.70793 
51 1 1.3697 12.2394 1.36111 
123 1 6.7627 12.2394 1.34371 
195 1 12.2064 12.2096 1.38191 
196 1 13.5709 13.5686 16.2908 
53 1 4.08015 14.9499 1.36111 
128 1 5.4327 13.5939 2.70793 
78 1 8.15949 16.2871 2.72672 
125 1 9.5109 14.9179 1.38112 
197 1 14.9326 14.9299 1.37271 
33 1 1.39263 9.51793 4.0734 
36 1 2.77131 8.17665 5.42502 
108 1 7.87205 8.44754 4.33677 
105 2 6.59179 9.72779 3.72914 
126 1 7.93676 10.794 2.76343 
104 1 5.52556 8.38282 2.76343 
130 1 5.63025 10.6893 5.15496 
198 1 13.5624 10.8556 2.73985 
177 1 12.1982 9.49349 4.09509 
58 1 0.0281769 10.8604 5.43117 
55 1 4.13454 12.185 4.05859 
60 1 2.76722 13.5524 5.42001 
132 1 8.14293 13.5483 5.42502 
127 1 9.42792 12.1291 4.07221 
200 1 10.8229 13.5246 2.74988 
199 1 14.9275 12.2128 4.08282 
57 1 1.3973 14.9223 4.08173 
129 1 6.80166 14.927 4.0734 
150 1 13.5761 16.2712 2.73785 
201 1 12.2036 14.9005 4.07888 
56 1 16.2849 13.5784 2.73238 
202 1 10.7533 10.7581 5.47309 
154 1 10.8659 16.2721 5.4356 
209 1 12.2266 14.9168 9.48852 
62 1 2.78289 10.8526 8.09958 
37 1 4.18994 9.53108 6.71356 
112 1 5.45304 8.18852 8.18714 
134 1 8.13107 10.8665 8.18714 
109 1 9.40027 9.38065 6.91129 
137 1 6.80121 14.9134 9.4769 
206 1 13.5676 10.8525 8.13627 
181 1 14.9373 9.50316 6.78707 
59 1 1.39906 12.211 6.77552 
64 1 0.0348485 13.5656 8.13058 
131 1 6.78851 12.1296 6.71356 
136 1 5.46697 13.5367 8.09958 
208 1 10.8634 13.5555 8.13722 
203 1 12.1701 12.1622 6.76829 
204 1 13.5524 13.544 5.4408 
10 1 0.0408881 16.2787 5.4372 
14 1 2.75401 16.2847 8.13058 
61 1 4.10857 14.9205 6.77552 
86 1 8.1641 16.278 8.13843 
90 1 5.45534 16.2857 10.8369 
133 1 9.50592 14.908 6.78175 
205 1 14.9328 14.9125 6.77696 
158 1 13.5888 16.2734 8.13924 
41 1 1.40618 9.51837 9.4769 
66 1 0.0339218 10.8643 10.8369 
162 1 10.8793 16.2765 10.8518 
113 1 6.79467 9.52491 9.55747 
210 1 10.8721 10.8632 10.8653 
185 1 12.2314 9.50347 9.5174 
63 1 4.10025 12.2193 9.48126 
68 1 2.7414 13.5782 10.8376 
138 1 5.43434 10.8852 10.8772 
140 1 8.15823 13.5804 10.8549 
135 1 9.51364 12.2189 9.51144 
212 1 13.5846 13.5691 10.8482 
207 1 14.9341 12.214 9.48326 
65 1 1.38777 14.9318 9.48219 
18 1 0.0360713 16.2835 10.8475 
218 2 8.08685 8.23274 6.13532 
217 1 12.2276 14.9266 14.9272 
45 1 4.08352 9.51791 12.2179 
120 1 5.4441 8.16265 13.5684 
117 1 9.52139 9.51334 12.2298 
214 1 13.5804 10.8646 13.5703 
189 1 14.946 9.516 12.2101 
67 1 1.37764 12.2287 12.1956 
70 1 2.72287 10.8761 13.5605 
139 1 6.80168 12.2361 12.2179 
142 1 8.15693 10.8755 13.5684 
216 1 10.8716 13.5748 13.5693 
211 1 12.229 12.2211 12.2133 
72 1 16.2888 13.5786 13.5619 
69 1 4.09087 14.9419 12.1956 
144 1 5.44344 13.5967 13.5605 
94 1 8.16196 16.2852 13.5643 
141 1 9.51837 14.9301 12.2102 
166 1 13.5878 16.2801 13.5696 
213 1 14.9385 14.9306 12.202 
49 1 1.37783 9.51782 14.9236 
28 1 2.7387 8.16511 16.2777 
121 1 6.79468 9.52491 14.9162 
100 1 8.15102 8.16857 16.2715 
193 1 12.2198 9.51768 14.936 
172 1 13.5982 8.16094 16.2682 
122 1 5.4237 10.8959 16.2413 
71 1 4.07114 12.2484 14.9006 
143 1 9.51016 12.2256 14.9264 
215 1 14.9309 12.2257 14.9238 
50 1 16.2849 10.872 16.28 
52 1 2.72495 13.5946 16.2711 
73 1 1.37498 14.9446 14.9138 
145 1 6.80177 14.9418 14.9236 
124 1 8.15448 13.5809 16.2777 
146 1 10.8715 16.274 16.2889 
ITEM: TIMESTEP
3
ITEM: NUMBER OF ATOMS
217
ITEM: BOX BOUNDS
0.027376266105042305 16.29262373389485
0.027376266105042305 16.29262373389485
0.027376266105042305 16.29262373389485
ITEM: ATOMS id type x y z 
3 1 1.38967 1.38696 1.37269 
75 1 6.80397 1.38533 1.37662 
152 1 10.8793 2.72446 2.72252 
147 1 12.2337 1.36538 1.37312 
2 1 0.0280373 16.2915 16.286 
4 1 2.75102 2.74864 16.2907 
5 1 4.10996 4.1132 1.38189 
102 1 8.15202 5.4182 2.66185 
77 1 9.52836 4.06418 1.34062 
149 1 14.9542 4.08592 1.37312 
174 1 13.5951 5.44033 2.72252 
27 1 1.40168 6.80867 1.3811 
98 1 5.45761 5.47898 0.0306789 
99 1 6.78705 6.87159 1.39849 
171 1 12.2554 6.79123 1.34062 
6 1 2.74116 0.0346457 2.73237 
7 1 4.1068 1.3921 4.0828 
82 1 5.45921 16.2914 5.43115 
79 1 9.51922 1.37521 4.08161 
84 1 8.1744 2.74287 5.43881 
151 1 14.9517 1.3679 4.0788 
8 1 0.0484045 2.74342 2.73783 
9 1 1.41914 4.116 4.07886 
80 1 5.46403 2.75715 2.73983 
81 1 6.82611 4.12133 4.09507 
153 1 12.2496 4.06994 4.07873 
30 1 2.79501 5.4967 2.74986 
31 1 4.19045 6.89165 4.0722 
103 1 9.61055 6.70904 3.94466 
180 1 13.5767 8.14519 5.43881 
175 1 14.9444 6.80036 4.08161 
34 1 0.0474578 5.45363 5.43559 
106 1 5.5615 5.56626 5.47308 
11 1 1.4071 1.38678 6.77694 
16 1 0.0461856 2.73072 8.13922 
83 1 6.81643 1.38226 6.78706 
155 1 12.2325 1.36336 6.78643 
156 1 13.6 2.71961 5.43896 
12 1 2.77564 2.76718 5.44078 
13 1 4.15739 4.14947 6.76827 
88 1 5.46707 2.75199 8.13625 
85 1 9.53173 4.08552 6.80612 
178 1 10.9014 5.41818 5.44388 
157 1 14.9562 4.08706 6.78643 
44 1 2.73916 8.16134 10.8549 
35 1 1.41157 6.81365 6.78173 
38 1 2.76406 5.45619 8.1372 
107 1 6.93895 6.91931 6.91127 
40 1 0.0415536 8.15547 8.13842 
179 1 12.2341 6.78786 6.80612 
15 1 4.10555 1.38549 9.48324 
87 1 9.52046 1.36647 9.50078 
92 1 8.16971 2.72378 10.864 
160 1 10.8852 2.72018 8.15137 
159 1 14.9491 1.37045 9.4892 
17 1 1.40282 4.09293 9.48851 
42 1 0.0430895 5.44025 10.8518 
20 1 2.75047 2.73493 10.8482 
89 1 6.81612 4.08814 9.51739 
161 1 12.2437 4.07585 9.508 
182 1 13.5994 5.43441 8.15137 
39 1 4.10072 6.80593 9.51143 
114 1 5.45644 5.44746 10.8653 
184 1 10.8805 8.1131 8.20107 
110 1 8.20648 5.43905 8.20107 
111 1 9.54304 6.77655 9.5704 
188 1 13.5958 8.14988 10.864 
183 1 14.9531 6.79913 9.50078 
164 1 13.5994 2.72021 10.8572 
19 1 1.38899 1.38103 12.202 
24 1 0.039471 2.73182 13.5695 
22 1 2.741 0.0307981 13.5618 
91 1 6.8036 1.37358 12.2101 
163 1 12.2359 1.36677 12.2093 
168 1 10.8834 2.71653 13.5745 
48 1 0.0344198 8.15761 13.5643 
21 1 4.09849 4.09056 12.2133 
96 1 5.45497 2.73913 13.5702 
93 1 9.52302 4.07322 12.2308 
186 1 10.9018 5.41777 10.8932 
165 1 14.9528 4.08371 12.2093 
190 1 13.6031 5.43621 13.5745 
43 1 1.38946 6.8012 12.2102 
46 1 2.7448 5.44794 13.5693 
115 1 6.80626 6.79819 12.2298 
116 1 8.16607 8.15351 10.8873 
187 1 12.2464 6.79656 12.2308 
23 1 4.0939 1.38863 14.9238 
74 1 5.4476 0.0347089 16.28 
76 1 8.15866 2.72133 16.2682 
95 1 9.52096 1.36367 14.9247 
167 1 14.9438 1.37579 14.9226 
148 1 13.5935 2.72605 16.2865 
25 1 1.393 4.092 14.9272 
97 1 6.80192 4.09974 14.936 
169 1 12.2426 4.07703 14.9218 
170 1 10.8843 5.43528 16.2671 
26 1 0.045605 5.44807 16.2889 
47 1 4.09401 6.80941 14.9264 
118 1 8.16647 5.44088 13.5784 
119 1 9.51884 6.80075 14.9315 
192 1 10.8787 8.15312 13.5784 
191 1 14.9559 6.79862 14.9247 
32 1 0.0324736 8.16009 2.7267 
29 1 4.08025 9.55687 1.3437 
101 1 9.44799 9.53253 1.39849 
194 1 10.8406 10.862 0.0306789 
176 1 10.9014 8.16756 2.66185 
173 1 14.9343 9.51561 1.37662 
54 1 2.72569 10.8869 2.70792 
51 1 1.36971 12.2394 1.36109 
123 1 6.76272 12.2393 1.3437 
195 1 12.2064 12.2096 1.38189 
196 1 13.5709 13.5686 16.2907 
53 1 4.08016 14.9499 1.36109 
128 1 5.43272 13.5939 2.70792 
78 1 8.1595 16.2871 2.7267 
125 1 9.51092 14.9179 1.3811 
197 1 14.9326 14.9299 1.37269 
33 1 1.39264 9.51791 4.07339 
36 1 2.77132 8.17664 5.42501 
108 1 7.87206 8.44752 4.33675 
105 2 6.59181 9.72778 3.72913 
126 1 7.93678 10.794 2.76341 
104 1 5.52557 8.38281 2.76341 
130 1 5.63026 10.6893 5.15494 
198 1 13.5624 10.8556 2.73983 
177 1 12.1983 9.49348 4.09507 
58 1 0.0281903 10.8604 5.43115 
55 1 4.13455 12.185 4.05858 
60 1 2.76724 13.5523 5.41999 
132 1 8.14295 13.5483 5.42501 
127 1 9.42793 12.1291 4.0722 
200 1 10.8229 13.5246 2.74986 
199 1 14.9275 12.2128 4.0828 
57 1 1.39732 14.9223 4.08171 
129 1 6.80167 14.9269 4.07339 
150 1 13.5762 16.2712 2.73783 
201 1 12.2036 14.9004 4.07886 
56 1 16.2849 13.5784 2.73237 
202 1 10.7533 10.7581 5.47308 
154 1 10.866 16.2721 5.43559 
209 1 12.2267 14.9168 9.48851 
62 1 2.7829 10.8526 8.09956 
37 1 4.18996 9.53106 6.71354 
112 1 5.45305 8.1885 8.18712 
134 1 8.13108 10.8665 8.18712 
109 1 9.40028 9.38063 6.91127 
137 1 6.80123 14.9134 9.47688 
206 1 13.5676 10.8525 8.13625 
181 1 14.9373 9.50315 6.78706 
59 1 1.39907 12.211 6.77551 
64 1 0.034862 13.5656 8.13056 
131 1 6.78852 12.1296 6.71354 
136 1 5.46699 13.5367 8.09956 
208 1 10.8634 13.5555 8.1372 
203 1 12.1701 12.1622 6.76827 
204 1 13.5524 13.5439 5.44078 
10 1 0.0409016 16.2787 5.43719 
14 1 2.75403 16.2847 8.13056 
61 1 4.10858 14.9205 6.77551 
86 1 8.16411 16.278 8.13842 
90 1 5.45535 16.2856 10.8369 
133 1 9.50594 14.908 6.78173 
205 1 14.9328 14.9125 6.77694 
158 1 13.5889 16.2734 8.13922 
41 1 1.4062 9.51836 9.47688 
66 1 0.0339353 10.8642 10.8369 
162 1 10.8793 16.2765 10.8518 
113 1 6.79469 9.5249 9.55745 
210 1 10.8721 10.8631 10.8653 
185 1 12.2314 9.50346 9.51739 
63 1 4.10027 12.2193 9.48124 
68 1 2.74141 13.5782 10.8376 
138 1 5.43436 10.8852 10.8772 
140 1 8.15824 13.5804 10.8549 
135 1 9.51365 12.2189 9.51143 
212 1 13.5847 13.5691 10.8482 
207 1 14.9341 12.214 9.48324 
65 1 1.38778 14.9318 9.48217 
18 1 0.0360848 16.2835 10.8475 
218 2 8.08686 8.23272 6.13531 
217 1 12.2276 14.9266 14.9272 
45 1 4.08354 9.5179 12.2179 
120 1 5.44411 8.16264 13.5683 
117 1 9.5214 9.51332 12.2298 
214 1 13.5805 10.8646 13.5702 
189 1 14.946 9.51598 12.2101 
67 1 1.37765 12.2287 12.1956 
70 1 2.72289 10.8761 13.5605 
139 1 6.80169 12.236 12.2179 
142 1 8.15695 10.8755 13.5683 
216 1 10.8716 13.5748 13.5693 
211 1 12.229 12.2211 12.2133 
72 1 16.2888 13.5786 13.5618 
69 1 4.09089 14.9419 12.1956 
144 1 5.44345 13.5967 13.5605 
94 1 8.16198 16.2852 13.5643 
141 1 9.51838 14.9301 12.2102 
166 1 13.5878 16.2801 13.5695 
213 1 14.9386 14.9306 12.202 
49 1 1.37784 9.51781 14.9236 
28 1 2.73871 8.16509 16.2777 
121 1 6.79469 9.52489 14.9162 
100 1 8.15103 8.16855 16.2715 
193 1 12.2198 9.51766 14.936 
172 1 13.5983 8.16092 16.2682 
122 1 5.42372 10.8959 16.2412 
71 1 4.07116 12.2484 14.9006 
143 1 9.51018 12.2256 14.9264 
215 1 14.931 12.2257 14.9238 
50 1 16.2849 10.872 16.28 
52 1 2.72496 13.5946 16.2711 
73 1 1.375 14.9446 14.9138 
145 1 6.80178 14.9417 14.9236 
124 1 8.15449 13.5809 16.2777 
146 1 10.8715 16.274 16.2889 
ITEM: TIMESTEP
4
ITEM: NUMBER OF ATOMS
217
ITEM: BOX BOUNDS
0.027376266105042305 16.29262373389485
0.027376266105042305 16.29262373389485
0.027376266105042305 16.29262373389485
ITEM: ATOMS id type x y z 
3 1 1.38963 1.387 1.37274 
75 1 6.80393 1.38537 1.37667 
152 1 10.8792 2.7245 2.72257 
147 1 12.2336 1.36542 1.37317 
2 1 0.0279965 16.2916 16.286 
4 1 2.75098 2.74868 16.2908 
5 1 4.10992 4.11324 1.38194 
102 1 8.15198 5.41824 2.6619 
77 1 9.52832 4.06422 1.34067 
149 1 14.9542 4.08596 1.37317 
174 1 13.5951 5.44037 2.72257 
27 1 1.40164 6.80871 1.38115 
98 1 5.45756 5.47902 0.0307285 
99 1 6.78701 6.87164 1.39854 
171 1 12.2554 6.79127 1.34067 
6 1 2.74112 0.0346883 2.73242 
7 1 4.10676 1.39214 4.08285 
82 1 5.45917 16.2914 5.4312 
79 1 9.51918 1.37525 4.08166 
84 1 8.17436 2.74292 5.43886 
151 1 14.9516 1.36794 4.07885 
8 1 0.0483637 2.74347 2.73788 
9 1 1.4191 4.11605 4.07891 
80 1 5.46399 2.75719 2.73988 
81 1 6.82607 4.12137 4.09512 
153 1 12.2496 4.06998 4.07878 
30 1 2.79497 5.49674 2.74991 
31 1 4.19041 6.8917 4.07225 
103 1 9.6105 6.70908 3.94471 
180 1 13.5767 8.14523 5.43886 
175 1 14.9443 6.80041 4.08166 
34 1 0.047417 5.45367 5.43564 
106 1 5.56146 5.5663 5.47313 
11 1 1.40706 1.38682 6.77699 
16 1 0.0461447 2.73077 8.13927 
83 1 6.81639 1.38231 6.78711 
155 1 12.2325 1.3634 6.78648 
156 1 13.5999 2.71965 5.43901 
12 1 2.7756 2.76723 5.44083 
13 1 4.15735 4.14951 6.76832 
88 1 5.46703 2.75203 8.1363 
85 1 9.53169 4.08556 6.80617 
178 1 10.9014 5.41822 5.44393 
157 1 14.9562 4.08711 6.78648 
44 1 2.73912 8.16139 10.8549 
35 1 1.41153 6.81369 6.78178 
38 1 2.76402 5.45623 8.13725 
107 1 6.93891 6.91935 6.91132 
40 1 0.0415127 8.15551 8.13847 
179 1 12.234 6.7879 6.80617 
15 1 4.10551 1.38553 9.48329 
87 1 9.52042 1.36651 9.50083 
92 1 8.16967 2.72382 10.8641 
160 1 10.8851 2.72023 8.15142 
159 1 14.9491 1.37049 9.48925 
17 1 1.40278 4.09298 9.48856 
42 1 0.0430486 5.4403 10.8518 
20 1 2.75043 2.73497 10.8483 
89 1 6.81608 4.08818 9.51743 
161 1 12.2437 4.07589 9.50805 
182 1 13.5994 5.43446 8.15142 
39 1 4.10068 6.80597 9.51148 
114 1 5.4564 5.4475 10.8653 
184 1 10.8805 8.11314 8.20112 
110 1 8.20644 5.43909 8.20112 
111 1 9.543 6.77659 9.57045 
188 1 13.5958 8.14992 10.8641 
183 1 14.9531 6.79917 9.50083 
164 1 13.5993 2.72025 10.8572 
19 1 1.38895 1.38107 12.2021 
24 1 0.0394301 2.73186 13.5696 
22 1 2.74096 0.0308406 13.5619 
91 1 6.80356 1.37363 12.2102 
163 1 12.2358 1.36681 12.2094 
168 1 10.8833 2.71658 13.5745 
48 1 0.034379 8.15765 13.5644 
21 1 4.09845 4.09061 12.2134 
96 1 5.45493 2.73917 13.5703 
93 1 9.52298 4.07326 12.2308 
186 1 10.9018 5.41782 10.8933 
165 1 14.9528 4.08375 12.2094 
190 1 13.603 5.43625 13.5745 
43 1 1.38941 6.80125 12.2102 
46 1 2.74476 5.44798 13.5694 
115 1 6.80622 6.79823 12.2299 
116 1 8.16603 8.15355 10.8873 
187 1 12.2463 6.79661 12.2308 
23 1 4.09386 1.38867 14.9238 
74 1 5.44755 0.0347514 16.2801 
76 1 8.15862 2.72137 16.2683 
95 1 9.52092 1.36372 14.9248 
167 1 14.9438 1.37583 14.9226 
148 1 13.5935 2.72609 16.2865 
25 1 1.39296 4.09205 14.9272 
97 1 6.80188 4.09979 14.9361 
169 1 12.2425 4.07707 14.9218 
170 1 10.8843 5.43532 16.2672 
26 1 0.0455642 5.44811 16.289 
47 1 4.09397 6.80945 14.9265 
118 1 8.16643 5.44093 13.5785 
119 1 9.5188 6.80079 14.9316 
192 1 10.8787 8.15316 13.5785 
191 1 14.9559 6.79866 14.9248 
32 1 0.0324328 8.16013 2.72675 
29 1 4.08021 9.55691 1.34375 
101 1 9.44795 9.53258 1.39854 
194 1 10.8406 10.862 0.0307285 
176 1 10.9013 8.16761 2.6619 
173 1 14.9342 9.51565 1.37667 
54 1 2.72565 10.8869 2.70797 
51 1 1.36967 12.2395 1.36114 
123 1 6.76268 12.2394 1.34375 
195 1 12.2063 12.2097 1.38194 
196 1 13.5709 13.5686 16.2908 
53 1 4.08012 14.9499 1.36114 
128 1 5.43267 13.5939 2.70797 
78 1 8.15946 16.2872 2.72675 
125 1 9.51088 14.9179 1.38115 
197 1 14.9326 14.93 1.37274 
33 1 1.3926 9.51795 4.07343 
36 1 2.77128 8.17668 5.42506 
108 1 7.87202 8.44757 4.3368 
105 2 6.59177 9.72782 3.72918 
126 1 7.93674 10.7941 2.76346 
104 1 5.52553 8.38285 2.76346 
130 1 5.63022 10.6894 5.15499 
198 1 13.5624 10.8556 2.73988 
177 1 12.1982 9.49352 4.09512 
58 1 0.0281495 10.8604 5.4312 
55 1 4.13451 12.1851 4.05863 
60 1 2.76719 13.5524 5.42004 
132 1 8.14291 13.5483 5.42506 
127 1 9.42789 12.1292 4.07225 
200 1 10.8228 13.5246 2.74991 
199 1 14.9274 12.2128 4.08285 
57 1 1.39727 14.9223 4.08176 
129 1 6.80163 14.927 4.07343 
150 1 13.5761 16.2712 2.73788 
201 1 12.2035 14.9005 4.07891 
56 1 16.2849 13.5785 2.73242 
202 1 10.7533 10.7581 5.47313 
154 1 10.8659 16.2722 5.43564 
209 1 12.2266 14.9168 9.48856 
62 1 2.78286 10.8526 8.09961 
37 1 4.18992 9.53111 6.71359 
112 1 5.45301 8.18854 8.18717 
134 1 8.13104 10.8666 8.18717 
109 1 9.40024 9.38068 6.91132 
137 1 6.80119 14.9134 9.47693 
206 1 13.5676 10.8526 8.1363 
181 1 14.9373 9.50319 6.78711 
59 1 1.39903 12.211 6.77556 
64 1 0.0348212 13.5656 8.13061 
131 1 6.78848 12.1297 6.71359 
136 1 5.46695 13.5367 8.09961 
208 1 10.8634 13.5556 8.13725 
203 1 12.1701 12.1622 6.76832 
204 1 13.5524 13.544 5.44083 
10 1 0.0408608 16.2787 5.43724 
14 1 2.75399 16.2848 8.13061 
61 1 4.10854 14.9206 6.77556 
86 1 8.16407 16.2781 8.13847 
90 1 5.45531 16.2857 10.837 
133 1 9.5059 14.9081 6.78178 
205 1 14.9328 14.9125 6.77699 
158 1 13.5888 16.2734 8.13927 
41 1 1.40616 9.5184 9.47693 
66 1 0.0338944 10.8643 10.837 
162 1 10.8793 16.2765 10.8518 
113 1 6.79465 9.52494 9.5575 
210 1 10.8721 10.8632 10.8653 
185 1 12.2314 9.5035 9.51743 
63 1 4.10023 12.2194 9.48129 
68 1 2.74137 13.5782 10.8377 
138 1 5.43431 10.8853 10.8772 
140 1 8.1582 13.5805 10.8549 
135 1 9.51361 12.2189 9.51148 
212 1 13.5846 13.5692 10.8483 
207 1 14.9341 12.2141 9.48329 
65 1 1.38774 14.9318 9.48222 
18 1 0.036044 16.2835 10.8475 
218 2 8.08682 8.23276 6.13536 
217 1 12.2275 14.9266 14.9272 
45 1 4.0835 9.51794 12.218 
120 1 5.44407 8.16268 13.5684 
117 1 9.52136 9.51337 12.2299 
214 1 13.5804 10.8647 13.5703 
189 1 14.946 9.51603 12.2102 
67 1 1.37761 12.2287 12.1956 
70 1 2.72285 10.8762 13.5606 
139 1 6.80165 12.2361 12.218 
142 1 8.15691 10.8755 13.5684 
216 1 10.8716 13.5748 13.5694 
211 1 12.229 12.2211 12.2134 
72 1 16.2887 13.5786 13.5619 
69 1 4.09085 14.942 12.1956 
144 1 5.44341 13.5967 13.5606 
94 1 8.16194 16.2852 13.5644 
141 1 9.51834 14.9302 12.2102 
166 1 13.5877 16.2802 13.5696 
213 1 14.9385 14.9306 12.2021 
49 1 1.3778 9.51785 14.9237 
28 1 2.73867 8.16513 16.2778 
121 1 6.79465 9.52494 14.9162 
100 1 8.15099 8.1686 16.2715 
193 1 12.2198 9.51771 14.9361 
172 1 13.5982 8.16097 16.2683 
122 1 5.42368 10.8959 16.2413 
71 1 4.07112 12.2485 14.9006 
143 1 9.51014 12.2256 14.9265 
215 1 14.9309 12.2257 14.9238 
50 1 16.2848 10.872 16.2801 
52 1 2.72492 13.5947 16.2711 
73 1 1.37496 14.9446 14.9138 
145 1 6.80174 14.9418 14.9237 
124 1 8.15445 13.5809 16.2778 
146 1 10.8715 16.274 16.289 
ITEM: TIMESTEP
5
ITEM: NUMBER OF ATOMS
217
ITEM: BOX BOUNDS
0.027376266105042305 16.29262373389485
0.027376266105042305 16.29262373389485
0.027376266105042305 16.29262373389485
ITEM: ATOMS id type x y z 
3 1 1.38956 1.38707 1.37282 
75 1 6.80387 1.38544 1.37675 
152 1 10.8791 2.72457 2.72265 
147 1 12.2336 1.36549 1.37325 
2 1 0.0279321 16.2917 16.2861 
4 1 2.75091 2.74875 16.2909 
5 1 4.10985 4.11331 1.38202 
102 1 8.15192 5.41831 2.66198 
77 1 9.52825 4.06429 1.34075 
149 1 14.9541 4.08603 1.37325 
174 1 13.595 5.44044 2.72265 
27 1 1.40158 6.80878 1.38123 
98 1 5.4575 5.47909 0.0308069 
99 1 6.78695 6.8717 1.39862 
171 1 12.2553 6.79134 1.34075 
6 1 2.74106 0.0347554 2.73249 
7 1 4.10669 1.39221 4.08293 
82 1 5.4591 16.2915 5.43128 
79 1 9.51911 1.37532 4.08173 
84 1 8.17429 2.74298 5.43894 
151 1 14.9516 1.36801 4.07893 
8 1 0.0482992 2.74353 2.73796 
9 1 1.41903 4.11611 4.07899 
80 1 5.46393 2.75726 2.73996 
81 1 6.826 4.12144 4.0952 
153 1 12.2495 4.07005 4.07886 
30 1 2.7949 5.49681 2.74999 
31 1 4.19035 6.89176 4.07233 
103 1 9.61044 6.70915 3.94479 
180 1 13.5766 8.1453 5.43894 
175 1 14.9443 6.80047 4.08173 
34 1 0.0473525 5.45374 5.43572 
106 1 5.56139 5.56637 5.4732 
11 1 1.407 1.38689 6.77707 
16 1 0.0460802 2.73083 8.13935 
83 1 6.81633 1.38237 6.78718 
155 1 12.2324 1.36347 6.78656 
156 1 13.5999 2.71972 5.43909 
12 1 2.77554 2.76729 5.44091 
13 1 4.15728 4.14958 6.7684 
88 1 5.46696 2.7521 8.13638 
85 1 9.53162 4.08563 6.80625 
178 1 10.9013 5.41829 5.44401 
157 1 14.9561 4.08717 6.78656 
44 1 2.73906 8.16145 10.855 
35 1 1.41147 6.81376 6.78186 
38 1 2.76396 5.4563 8.13733 
107 1 6.93885 6.91942 6.9114 
40 1 0.0414482 8.15558 8.13855 
179 1 12.234 6.78797 6.80625 
15 1 4.10544 1.3856 9.48337 
87 1 9.52035 1.36658 9.50091 
92 1 8.1696 2.72389 10.8641 
160 1 10.8851 2.72029 8.15149 
159 1 14.949 1.37056 9.48933 
17 1 1.40271 4.09304 9.48864 
42 1 0.0429841 5.44036 10.8519 
20 1 2.75037 2.73504 10.8483 
89 1 6.81602 4.08825 9.51751 
161 1 12.2436 4.07596 9.50813 
182 1 13.5993 5.43452 8.15149 
39 1 4.10061 6.80604 9.51155 
114 1 5.45633 5.44757 10.8654 
184 1 10.8804 8.11321 8.2012 
110 1 8.20638 5.43916 8.2012 
111 1 9.54293 6.77666 9.57053 
188 1 13.5957 8.14999 10.8641 
183 1 14.953 6.79923 9.50091 
164 1 13.5993 2.72032 10.8573 
19 1 1.38888 1.38114 12.2021 
24 1 0.0393656 2.73193 13.5697 
22 1 2.7409 0.0309078 13.562 
91 1 6.8035 1.37369 12.2102 
163 1 12.2358 1.36688 12.2095 
168 1 10.8833 2.71664 13.5746 
48 1 0.0343145 8.15772 13.5645 
21 1 4.09839 4.09067 12.2134 
96 1 5.45487 2.73924 13.5704 
93 1 9.52292 4.07333 12.2309 
186 1 10.9017 5.41788 10.8934 
165 1 14.9527 4.08382 12.2095 
190 1 13.6029 5.43632 13.5746 
43 1 1.38935 6.80131 12.2103 
46 1 2.7447 5.44805 13.5695 
115 1 6.80616 6.7983 12.2299 
116 1 8.16597 8.15362 10.8874 