ITEM: TIMESTEP
1
ITEM: NUMBER OF ATOMS
217
ITEM: BOX BOUNDS
0.027376266105042305 16.29262373389485
0.027376266105042305 16.29262373389485
0.027376266105042305 16.29262373389485
ITEM: ATOMS id type x y z 
3 1 1.38959 1.38706 1.37282 
75 1 6.80388 1.3854 1.37668 
152 1 10.8793 2.72445 2.72267 
147 1 12.2336 1.36539 1.37326 
2 1 0.0279363 16.2917 16.2861 
4 1 2.75092 2.74876 16.2908 
5 1 4.10989 4.11329 1.38196 
102 1 8.152 5.4182 2.66192 
77 1 9.52835 4.06417 1.34072 
149 1 14.9542 4.08596 1.37325 
174 1 13.5951 5.44034 2.72266 
27 1 1.40161 6.80878 1.38114 
98 1 5.45751 5.4791 0.0307285 
99 1 6.78702 6.87164 1.39853 
171 1 12.2554 6.79125 1.34072 
6 1 2.74106 0.0347292 2.73249 
7 1 4.10674 1.39214 4.08292 
82 1 5.45917 16.2914 5.43123 
79 1 9.51923 1.37516 4.08172 
84 1 8.17442 2.74282 5.43889 
151 1 14.9517 1.36785 4.07902 
8 1 0.0483534 2.74346 2.73803 
9 1 1.41913 4.11602 4.07901 
80 1 5.46394 2.75719 2.7399 
81 1 6.82613 4.12127 4.09511 
153 1 12.2498 4.06976 4.07888 
30 1 2.79488 5.49675 2.7499 
31 1 4.1904 6.89167 4.07213 
103 1 9.6109 6.70871 3.94471 
180 1 13.5768 8.14517 5.43889 
175 1 14.9444 6.80036 4.08172 
34 1 0.0474733 5.45362 5.43576 
106 1 5.56149 5.56624 5.47297 
11 1 1.40713 1.38678 6.77718 
16 1 0.0462467 2.73071 8.13951 
83 1 6.81643 1.38224 6.78714 
155 1 12.2326 1.36326 6.78667 
156 1 13.6001 2.7195 5.43925 
12 1 2.77562 2.76719 5.44094 
13 1 4.15743 4.14951 6.76831 
88 1 5.46709 2.75201 8.1363 
85 1 9.53185 4.08536 6.8062 
178 1 10.9017 5.41793 5.44405 
157 1 14.9563 4.08701 6.78667 
44 1 2.73925 8.16139 10.8548 
35 1 1.41162 6.81369 6.7818 
38 1 2.76412 5.45623 8.13725 
107 1 6.93921 6.91928 6.91088 
40 1 0.0415824 8.15549 8.13849 
179 1 12.2342 6.78773 6.8062 
15 1 4.10556 1.38556 9.48335 
87 1 9.52041 1.36643 9.50092 
92 1 8.16967 2.72385 10.8641 
160 1 10.8852 2.72009 8.15158 
159 1 14.9491 1.37045 9.48947 
17 1 1.40288 4.09304 9.48867 
42 1 0.0431095 5.44033 10.8519 
20 1 2.7505 2.73501 10.8484 
89 1 6.81617 4.08821 9.51735 
161 1 12.2438 4.07583 9.50819 
182 1 13.5995 5.43436 8.15158 
39 1 4.10087 6.80604 9.51128 
114 1 5.45648 5.44755 10.8652 
184 1 10.8806 8.11303 8.20092 
110 1 8.20655 5.43902 8.20092 
111 1 9.54307 6.77651 9.57029 
188 1 13.5957 8.14992 10.864 
183 1 14.9531 6.79918 9.50092 
164 1 13.5994 2.72023 10.8574 
19 1 1.38895 1.38116 12.2022 
24 1 0.0394129 2.73193 13.5697 
22 1 2.74095 0.0308933 13.5619 
91 1 6.80352 1.37369 12.2101 
163 1 12.2358 1.3668 12.2095 
168 1 10.8833 2.71663 13.5746 
48 1 0.0343425 8.15772 13.5643 
21 1 4.0985 4.09074 12.2133 
96 1 5.45492 2.73927 13.5703 
93 1 9.52296 4.0733 12.2309 
186 1 10.9018 5.41781 10.8933 
165 1 14.9528 4.08382 12.2095 
190 1 13.603 5.43632 13.5746 
43 1 1.38948 6.80137 12.2102 
46 1 2.74477 5.44808 13.5694 
115 1 6.80626 6.79828 12.2298 
116 1 8.16608 8.1535 10.8871 
187 1 12.2463 6.79663 12.2308 
23 1 4.09381 1.38879 14.9238 
74 1 5.44748 0.0348305 16.28 
76 1 8.15856 2.72142 16.2683 
95 1 9.52084 1.36375 14.9248 
167 1 14.9437 1.37589 14.9227 
148 1 13.5935 2.72614 16.2866 
25 1 1.39295 4.09217 14.9273 
97 1 6.80185 4.09987 14.9361 
169 1 12.2425 4.07711 14.9219 
170 1 10.8842 5.43535 16.2673 
26 1 0.0455111 5.44818 16.289 
47 1 4.09397 6.80956 14.9264 
118 1 8.1664 5.44099 13.5785 
119 1 9.51877 6.80082 14.9316 
192 1 10.8786 8.15319 13.5785 
191 1 14.9558 6.79875 14.9248 
32 1 0.032404 8.16017 2.72676 
29 1 4.08007 9.55703 1.34357 
101 1 9.44795 9.53256 1.39852 
194 1 10.8405 10.8621 0.0307235 
176 1 10.9014 8.16759 2.66191 
173 1 14.9342 9.51572 1.37667 
54 1 2.72556 10.887 2.70788 
51 1 1.36957 12.2396 1.36111 
123 1 6.76256 12.2395 1.34358 
195 1 12.2063 12.2097 1.38196 
196 1 13.5708 13.5687 16.2908 
53 1 4.08002 14.95 1.36111 
128 1 5.4326 13.594 2.70788 
78 1 8.15942 16.2872 2.72677 
125 1 9.51081 14.918 1.38114 
197 1 14.9325 14.93 1.37282 
33 1 1.3926 9.51799 4.0734 
36 1 2.77129 8.17667 5.42496 
108 1 7.87218 8.44737 4.33601 
105 2 6.5918 9.72776 3.72878 
126 1 7.93671 10.7942 2.76322 
104 1 5.52535 8.38286 2.76321 
130 1 5.6303 10.6893 5.15465 
198 1 13.5624 10.8557 2.73989 
177 1 12.1983 9.49346 4.0951 
58 1 0.0281734 10.8604 5.43122 
55 1 4.1345 12.1851 4.05852 
60 1 2.76723 13.5524 5.42006 
132 1 8.14292 13.5483 5.42495 
127 1 9.42791 12.1292 4.07212 
200 1 10.8228 13.5247 2.7499 
199 1 14.9274 12.2129 4.08291 
57 1 1.39727 14.9223 4.08186 
129 1 6.8016 14.927 4.0734 
150 1 13.5761 16.2712 2.73803 
201 1 12.2036 14.9005 4.07901 
56 1 16.2849 13.5785 2.73249 
202 1 10.7533 10.7581 5.47296 
154 1 10.866 16.2721 5.43576 
209 1 12.2265 14.9167 9.48866 
62 1 2.78298 10.8526 8.09949 
37 1 4.19004 9.53108 6.71336 
112 1 5.45325 8.18843 8.18677 
134 1 8.13114 10.8663 8.18676 
109 1 9.40029 9.38036 6.91087 
137 1 6.80117 14.9134 9.47689 
206 1 13.5676 10.8525 8.13629 
181 1 14.9373 9.50316 6.78713 
59 1 1.39907 12.211 6.77558 
64 1 0.0348789 13.5655 8.13074 
131 1 6.7885 12.1295 6.71335 
136 1 5.46703 13.5366 8.09949 
208 1 10.8633 13.5555 8.13724 
203 1 12.1701 12.1621 6.7683 
204 1 13.5524 13.544 5.44094 
10 1 0.0409216 16.2787 5.43745 
14 1 2.75406 16.2847 8.13074 
61 1 4.10857 14.9205 6.77559 
86 1 8.1641 16.278 8.13849 
90 1 5.45534 16.2857 10.837 
133 1 9.50589 14.908 6.78179 
205 1 14.9328 14.9125 6.77717 
158 1 13.5889 16.2733 8.13951 
41 1 1.40623 9.51841 9.47689 
66 1 0.0339079 10.8642 10.8369 
162 1 10.8793 16.2765 10.8519 
113 1 6.79475 9.52483 9.5572 
210 1 10.872 10.8631 10.8652 
185 1 12.2314 9.50341 9.51733 
63 1 4.10028 12.2193 9.48118 
68 1 2.74143 13.5782 10.8376 
138 1 5.43441 10.8852 10.877 
140 1 8.1582 13.5803 10.8548 
135 1 9.51354 12.2187 9.51127 
212 1 13.5846 13.5691 10.8483 
207 1 14.934 12.214 9.48334 
65 1 1.38776 14.9318 9.48233 
18 1 0.036076 16.2835 10.8477 
218 2 8.08727 8.2323 6.13454 
217 1 12.2274 14.9266 14.9273 
45 1 4.08355 9.51799 12.2178 
120 1 5.44408 8.16273 13.5683 
117 1 9.5213 9.51332 12.2297 
214 1 13.5803 10.8647 13.5703 
189 1 14.9459 9.51607 12.2101 
67 1 1.37757 12.2288 12.1956 
70 1 2.72283 10.8762 13.5604 
139 1 6.8016 12.236 12.2178 
142 1 8.15686 10.8755 13.5683 
216 1 10.8715 13.5748 13.5694 
211 1 12.2288 12.2211 12.2133 
72 1 16.2887 13.5787 13.5619 
69 1 4.09081 14.942 12.1956 
144 1 5.44339 13.5968 13.5604 
94 1 8.16188 16.2852 13.5643 
141 1 9.51822 14.9301 12.2102 
166 1 13.5877 16.2802 13.5697 
213 1 14.9384 14.9306 12.2022 
49 1 1.37773 9.51797 14.9236 
28 1 2.73856 8.16522 16.2777 
121 1 6.7946 9.52498 14.9161 
100 1 8.15095 8.16864 16.2715 
193 1 12.2197 9.51774 14.9361 
172 1 13.5982 8.16103 16.2683 
122 1 5.42358 10.896 16.2411 
71 1 4.07102 12.2486 14.9005 
143 1 9.51003 12.2256 14.9264 
215 1 14.9308 12.2258 14.9238 
50 1 16.2848 10.8721 16.28 
52 1 2.72484 13.5948 16.2711 
73 1 1.37486 14.9447 14.9138 
145 1 6.80163 14.9419 14.9236 
124 1 8.15437 13.581 16.2777 
146 1 10.8714 16.2741 16.289 
ITEM: TIMESTEP
2
ITEM: NUMBER OF ATOMS
217
ITEM: BOX BOUNDS
0.027376266105042305 16.29262373389485
0.027376266105042305 16.29262373389485
0.027376266105042305 16.29262373389485
ITEM: ATOMS id type x y z 
3 1 1.38726 1.38898 1.37628 
75 1 6.80181 1.38806 1.38005 
152 1 10.876 2.72834 2.72577 
147 1 12.2309 1.36898 1.37651 
2 1 16.2912 0.0285778 16.2893 
4 1 2.74841 2.75051 0.0288558 
5 1 4.1072 4.11522 1.38514 
102 1 8.14901 5.42234 2.66626 
77 1 9.52514 4.06839 1.34461 
149 1 14.9508 4.08878 1.37656 
174 1 13.5915 5.4437 2.72576 
27 1 1.39886 6.81063 1.38444 
98 1 5.45514 5.48091 0.0340671 
99 1 6.78452 6.87395 1.4016 
171 1 12.2514 6.79455 1.34452 
6 1 2.73909 0.0364933 2.73565 
7 1 4.10393 1.39445 4.08616 
82 1 5.45638 0.0287951 5.43463 
79 1 9.51611 1.37899 4.08481 
84 1 8.17058 2.74645 5.44185 
151 1 14.9482 1.37159 4.08209 
8 1 0.0453065 2.74593 2.74067 
9 1 1.41557 4.11836 4.08205 
80 1 5.46127 2.75945 2.74315 
81 1 6.82218 4.12475 4.0984 
153 1 12.2443 4.0755 4.0822 
30 1 2.79193 5.49855 2.7531 
31 1 4.18665 6.89392 4.07582 
103 1 9.60131 6.71867 3.9499 
180 1 13.5735 8.14918 5.44171 
175 1 14.9409 6.80357 4.08477 
34 1 0.0437886 5.45645 5.43851 
106 1 5.55598 5.56795 5.47712 
11 1 1.40336 1.38952 6.78059 
16 1 0.041978 2.73391 8.14215 
83 1 6.813 1.38558 6.79038 
155 1 12.229 1.36778 6.78922 
156 1 13.5955 2.72419 5.44122 
12 1 2.77176 2.7691 5.44385 
13 1 4.15228 4.15126 6.77227 
88 1 5.46306 2.75454 8.13986 
85 1 9.52693 4.09079 6.80839 
178 1 10.8946 5.42524 5.4455 
157 1 14.952 4.09063 6.78927 
44 1 2.73468 8.16414 10.8597 
35 1 1.40751 6.81622 6.78527 
38 1 2.75925 5.45843 8.14114 
107 1 6.93014 6.92214 6.91768 
40 1 0.0379441 8.15865 8.14181 
179 1 12.2292 6.79278 6.80831 
15 1 4.10211 1.38803 9.48732 
87 1 9.51743 1.37057 9.50342 
92 1 8.16631 2.72704 10.8669 
160 1 10.8809 2.72498 8.15321 
159 1 14.9457 1.37388 9.49274 
17 1 1.39842 4.09519 9.49238 
42 1 0.0388934 5.44318 10.8551 
20 1 2.74678 2.73741 10.852 
89 1 6.81205 4.09108 9.52071 
161 1 12.2397 4.07995 9.51014 
182 1 13.5948 5.43869 8.15325 
39 1 4.09498 6.80798 9.51654 
114 1 5.4524 5.44994 10.869 
184 1 10.8769 8.11818 8.20439 
110 1 8.20145 5.44301 8.20452 
111 1 9.53883 6.78096 9.57266 
188 1 13.5926 8.15334 10.8669 
183 1 14.9491 6.80218 9.50352 
164 1 13.5955 2.72412 10.8597 
19 1 1.3861 1.38329 12.2062 
24 1 0.0362097 2.73448 13.5728 
22 1 2.73859 0.0329761 13.5659 
91 1 6.80112 1.3764 12.2137 
163 1 12.233 1.37042 12.2125 
168 1 10.8803 2.72018 13.5773 
48 1 0.0312919 8.16008 13.5685 
21 1 4.09518 4.09258 12.2172 
96 1 5.45228 2.74141 13.5739 
93 1 9.51993 4.07666 12.2331 
186 1 10.8978 5.42188 10.8952 
165 1 14.9491 4.08648 12.2126 
190 1 13.5995 5.43935 13.5773 
43 1 1.38549 6.80322 12.2143 
46 1 2.74156 5.45004 13.5731 
115 1 6.80305 6.80094 12.2326 
116 1 8.1623 8.15733 10.8903 
187 1 12.243 6.79971 12.2331 
23 1 4.09182 1.39049 14.9277 
74 1 5.4458 0.0366623 16.2839 
76 1 8.15634 2.72467 16.272 
95 1 9.51862 1.36721 14.9282 
167 1 14.9412 1.37837 14.9262 
148 1 13.5906 2.72911 16.2894 
25 1 1.38998 4.09397 14.9308 
97 1 6.79953 4.10227 14.9391 
169 1 12.2394 4.08023 14.9249 
170 1 10.8812 5.43849 16.2704 
26 1 0.0424627 5.45034 16.2922 
47 1 4.09152 6.81118 14.9299 
118 1 8.16348 5.44376 13.5811 
119 1 9.51623 6.80344 14.934 
192 1 10.8759 8.15617 13.5811 
191 1 14.9525 6.80097 14.9283 
32 1 0.0298918 8.16243 2.73001 
29 1 4.07922 9.55779 1.34842 
101 1 9.44584 9.53525 1.40147 
194 1 10.8388 10.8646 0.0338973 
176 1 10.8976 8.17083 2.66608 
173 1 14.9318 9.51791 1.37992 
54 1 2.72426 10.8884 2.71197 
51 1 1.36836 12.2409 1.36507 
123 1 6.76191 12.2405 1.34836 
195 1 12.2046 12.2126 1.38491 
196 1 13.5692 13.5714 0.0286601 
53 1 4.07883 14.9514 1.36512 
128 1 5.43139 13.5955 2.71197 
78 1 8.15733 16.2899 2.73003 
125 1 9.50903 14.9209 1.38433 
197 1 14.9307 14.9325 1.37618 
33 1 1.38986 9.5203 4.07695 
36 1 2.76777 8.17899 5.42887 
108 1 7.86538 8.45445 4.35074 
105 2 6.58807 9.73172 3.73446 
126 1 7.93533 10.7952 2.76872 
104 1 5.52459 8.38444 2.76883 
130 1 5.62675 10.6929 5.1605 
198 1 13.5605 10.8586 2.74288 
177 1 12.1953 9.49761 4.09812 
58 1 16.291 10.8634 5.43456 
55 1 4.13197 12.1878 4.06266 
60 1 2.76459 13.5552 5.42388 
132 1 8.1408 13.5519 5.42867 
127 1 9.42596 12.1331 4.07556 
200 1 10.8213 13.5279 2.75286 
199 1 14.9254 12.2159 4.086 
57 1 1.39486 14.925 4.0853 
129 1 6.79946 14.9299 4.07693 
150 1 13.5738 16.2745 2.74056 
201 1 12.2014 14.9043 4.08188 
56 1 16.2834 13.5808 2.73554 
202 1 10.752 10.7638 5.47675 
154 1 10.8633 16.276 5.43839 
209 1 12.2244 14.9212 9.49216 
62 1 2.77897 10.8561 8.10417 
37 1 4.18506 9.53441 6.71778 
112 1 5.44589 8.19243 8.1937 
134 1 8.12735 10.8735 8.19342 
109 1 9.39796 9.38952 6.91739 
137 1 6.7985 14.9171 9.48082 
206 1 13.5652 10.8567 8.13969 
181 1 14.9343 9.50675 6.7903 
59 1 1.39594 12.2144 6.77938 
64 1 0.0319773 13.5692 8.13434 
131 1 6.78542 12.1345 6.7176 
136 1 5.46365 13.5406 8.10402 
208 1 10.8612 13.5603 8.14084 
203 1 12.1686 12.1675 6.77198 
204 1 13.5507 13.5481 5.44362 
10 1 0.0378391 16.282 5.44002 
14 1 2.75056 16.2877 8.13439 
61 1 4.10546 14.9238 6.77938 
86 1 8.16105 16.2817 8.1417 
90 1 5.45235 16.2886 10.8411 
133 1 9.50348 14.9122 6.78507 
205 1 14.9302 14.9164 6.7805 
158 1 13.5857 16.2777 8.14205 
41 1 1.40246 9.5212 9.48098 
66 1 0.0310158 10.8674 10.8411 
162 1 10.8764 16.2807 10.8549 
113 1 6.79052 9.52917 9.56148 
210 1 10.8697 10.8671 10.8688 
185 1 12.2287 9.50761 9.52056 
63 1 4.09706 12.2226 9.48556 
68 1 2.73852 13.5812 10.8422 
138 1 5.43092 10.8887 10.8819 
140 1 8.15552 13.5848 10.8595 
135 1 9.51169 12.2245 9.51621 
212 1 13.5821 13.5729 10.8518 
207 1 14.9316 12.2176 9.48722 
65 1 1.38488 14.9348 9.48647 
18 1 0.0328885 16.2867 10.8512 
218 2 8.07324 8.24655 6.15026 
217 1 12.2256 14.9297 14.9307 
45 1 4.08055 9.52019 12.2221 
120 1 5.44147 8.16483 13.572 
117 1 9.51871 9.51658 12.2325 
214 1 13.5782 10.8674 13.5738 
189 1 14.9432 9.51854 12.2137 
67 1 1.37546 12.231 12.2001 
70 1 2.72075 10.8783 13.5652 
139 1 6.79947 12.2391 12.222 
142 1 8.1548 10.8781 13.5719 
216 1 10.8695 13.5781 13.5729 
211 1 12.227 12.2244 12.217 
72 1 16.2867 13.5811 13.5659 
69 1 4.08872 14.9442 12.2001 
144 1 5.44143 13.5989 13.5651 
94 1 8.15959 16.2883 13.5684 
141 1 9.51633 14.9341 12.2141 
166 1 13.5851 16.2834 13.5727 
213 1 14.9363 14.9335 12.2061 
49 1 1.37585 9.51942 14.9278 
28 1 2.73696 8.16676 16.2819 
121 1 6.79281 9.52685 14.9195 
100 1 8.14897 8.17075 16.2748 
193 1 12.2174 9.52015 14.939 
172 1 13.5951 8.1634 16.2719 
122 1 5.42264 10.897 16.246 
71 1 4.06997 12.2497 14.9053 
143 1 9.50843 12.2282 14.9297 
215 1 14.9292 12.2279 14.9275 
50 1 16.2831 10.874 16.2838 
52 1 2.72365 13.5961 16.2753 
73 1 1.37337 14.9463 14.918 
145 1 6.80023 14.9439 14.9278 
124 1 8.15292 13.5828 16.2818 
146 1 10.8693 16.2773 16.2921 
ITEM: TIMESTEP
3
ITEM: NUMBER OF ATOMS
217
ITEM: BOX BOUNDS
0.027376266105042305 16.29262373389485
0.027376266105042305 16.29262373389485
0.027376266105042305 16.29262373389485
ITEM: ATOMS id type x y z 
3 1 1.38815 1.38613 1.37826 
75 1 6.80315 1.38797 1.38105 
152 1 10.8736 2.73277 2.72684 
147 1 12.2295 1.37229 1.37735 
2 1 0.027543 16.2923 16.29 
4 1 2.74807 2.74757 0.0297706 
5 1 4.10642 4.11273 1.38539 
102 1 8.14943 5.43024 2.67475 
77 1 9.52288 4.07544 1.35013 
149 1 14.9474 4.08936 1.37768 
174 1 13.5874 5.44596 2.72675 
27 1 1.39792 6.80835 1.38485 
98 1 5.45603 5.47778 0.0351788 
99 1 6.78725 6.87046 1.40124 
171 1 12.2448 6.79645 1.34953 
6 1 2.74151 0.0326482 2.73648 
7 1 4.10302 1.3929 4.08703 
82 1 5.45556 0.0284766 5.43617 
79 1 9.51408 1.38259 4.08517 
84 1 8.16611 2.74956 5.44127 
151 1 14.9446 1.37532 4.08292 
8 1 0.0433059 2.74503 2.73951 
9 1 1.41178 4.1169 4.0821 
80 1 5.4604 2.75762 2.74328 
81 1 6.81739 4.12634 4.09794 
153 1 12.2321 4.08787 4.08408 
30 1 2.78928 5.49523 2.75271 
31 1 4.18093 6.89188 4.07669 
103 1 9.56433 6.75749 3.96642 
180 1 13.5723 8.15395 5.44033 
175 1 14.9385 6.80511 4.08484 
34 1 0.0401143 5.4566 5.43808 
106 1 5.53972 5.55894 5.47658 
11 1 1.399 1.38931 6.7829 
16 1 0.0360671 2.73548 8.14197 
83 1 6.81001 1.38787 6.79102 
155 1 12.2254 1.37418 6.78808 
156 1 13.5879 2.73175 5.43793 
12 1 2.7661 2.76523 5.44325 
13 1 4.14074 4.14595 6.77583 
88 1 5.4581 2.75423 8.14143 
85 1 9.51917 4.10122 6.80357 
178 1 10.875 5.44598 5.43731 
157 1 14.9461 4.09342 6.78838 
44 1 2.72761 8.16498 10.8666 
35 1 1.40208 6.81577 6.78709 
38 1 2.7507 5.45667 8.14442 
107 1 6.89938 6.91625 6.92647 
40 1 0.0342808 8.16038 8.14318 
179 1 12.2214 6.80046 6.80307 
15 1 4.09933 1.38792 9.49086 
87 1 9.51553 1.37606 9.50113 
92 1 8.16297 2.73009 10.865 
160 1 10.8746 2.7333 8.14786 
159 1 14.9421 1.37662 9.49473 
17 1 1.39168 4.09374 9.49562 
42 1 0.032985 5.44437 10.8561 
20 1 2.74305 2.73703 10.8548 
89 1 6.80743 4.09349 9.5195 
161 1 12.2341 4.08529 9.50624 
182 1 13.5874 5.44423 8.14833 
39 1 4.08254 6.80592 9.5241 
114 1 5.44762 5.44976 10.8704 
184 1 10.8736 8.12722 8.2016 
110 1 8.19215 5.449 8.20227 
111 1 9.53229 6.78871 9.5658 
188 1 13.5899 8.15608 10.8656 
183 1 14.9439 6.80328 9.50212 
164 1 13.5899 2.72866 10.8578 
19 1 1.38491 1.38203 12.2101 
24 1 0.0334934 2.73465 13.5736 
22 1 2.73891 0.0311432 13.5698 
91 1 6.80134 1.37754 12.2149 
163 1 12.231 1.37382 12.2127 
168 1 10.8773 2.7241 13.5756 
48 1 0.0291322 8.15993 13.5728 
21 1 4.09311 4.09092 12.2197 
96 1 5.45177 2.74013 13.576 
93 1 9.51779 4.08017 12.2288 
186 1 10.8913 5.42826 10.8888 
165 1 14.9448 4.08699 12.2134 
190 1 13.595 5.44131 13.5761 
43 1 1.38039 6.80136 12.2187 
46 1 2.73959 5.44847 13.5755 
115 1 6.80108 6.80169 12.2306 
116 1 8.1579 8.16148 10.888 
187 1 12.2394 6.80125 12.2291 
23 1 4.09355 1.38739 14.9308 
74 1 5.44824 0.0333521 16.2873 
76 1 8.15745 2.72805 16.2755 
95 1 9.51833 1.37084 14.9295 
167 1 14.9408 1.37787 14.928 
148 1 13.5888 2.73044 16.2888 
25 1 1.38839 4.0918 14.9327 
97 1 6.80045 4.10163 14.939 
169 1 12.2366 4.08208 14.925 
170 1 10.8792 5.44021 16.2718 
26 1 0.0400892 5.44918 0.0274834 
47 1 4.0925 6.8081 14.9315 
118 1 8.16183 5.4445 13.5788 
119 1 9.51666 6.8026 14.9312 
192 1 10.8748 8.15727 13.5787 
191 1 14.9486 6.80007 14.9301 
32 1 0.0302541 8.16131 2.73074 
29 1 4.08851 9.54821 1.35744 
101 1 9.44968 9.53292 1.40032 
194 1 10.8419 10.864 0.0340359 
176 1 10.8912 8.1714 2.67344 
173 1 14.9329 9.51627 1.38003 
54 1 2.73066 10.8822 2.71646 
51 1 1.37452 12.2354 1.36945 
123 1 6.77089 12.2318 1.35656 
195 1 12.2074 12.2138 1.3838 
196 1 13.5721 13.5722 0.0284326 
53 1 4.0844 14.9458 1.36972 
128 1 5.43742 13.5894 2.71641 
78 1 8.15836 16.2903 2.73087 
125 1 9.51057 14.9225 1.38396 
197 1 14.9336 14.9317 1.37764 
33 1 1.3894 9.51901 4.07906 
36 1 2.76414 8.17746 5.43168 
108 1 7.84283 8.47932 4.41173 
105 2 6.58479 9.73646 3.74292 
126 1 7.94335 10.785 2.77846 
104 1 5.53616 8.37711 2.77994 
130 1 5.62401 10.6953 5.16928 
198 1 13.5641 10.8606 2.74115 
177 1 12.1967 9.50286 4.0956 
58 1 16.2918 10.865 5.43581 
55 1 4.13297 12.1869 4.06734 
60 1 2.76512 13.555 5.42736 
132 1 8.14298 13.555 5.4302 
127 1 9.42952 12.1397 4.07459 
200 1 10.8253 13.5317 2.75072 
199 1 14.9281 12.2177 4.08594 
57 1 1.39622 14.9243 4.08758 
129 1 6.80092 14.9306 4.07886 
150 1 13.5749 16.2771 2.73879 
201 1 12.203 14.9089 4.08108 
56 1 16.2882 13.5792 2.73573 
202 1 10.7646 10.7814 5.47324 
154 1 10.8628 16.2801 5.43731 
209 1 12.2247 14.9273 9.49439 
62 1 2.77348 10.8595 8.11012 
37 1 4.17549 9.53759 6.72143 
112 1 5.4262 8.19731 8.20614 
134 1 8.12382 10.8907 8.2035 
109 1 9.40919 9.42051 6.9237 
137 1 6.79773 14.9208 9.48373 
206 1 13.5665 10.862 8.14068 
181 1 14.9331 9.51002 6.79078 
59 1 1.39377 12.217 6.78265 
64 1 0.030724 13.5729 8.13728 
131 1 6.78358 12.1429 6.7201 
136 1 5.46095 13.5446 8.10885 
208 1 10.8629 13.568 8.1425 
203 1 12.1759 12.1798 6.77421 
204 1 13.5557 13.555 5.44175 
10 1 0.0365327 16.284 5.43891 
14 1 2.74758 16.2888 8.13735 
61 1 4.10367 14.9258 6.78255 
86 1 8.15917 16.2851 8.14216 
90 1 5.45072 16.2894 10.8449 
133 1 9.50391 14.9174 6.78582 
205 1 14.9307 14.9218 6.78251 
158 1 13.5831 16.2835 8.14139 
41 1 1.39789 9.52198 9.4851 
66 1 0.0294055 10.8692 10.8457 
162 1 10.8738 16.2859 10.8547 
113 1 6.78532 9.53469 9.56213 
210 1 10.8696 10.8709 10.8691 
185 1 12.228 9.51213 9.51915 
63 1 4.09474 12.2249 9.49008 
68 1 2.73728 13.5823 10.8477 
138 1 5.42837 10.8908 10.8866 
140 1 8.15432 13.59 10.8644 
135 1 9.51371 12.2352 9.52166 
212 1 13.5814 13.5763 10.854 
207 1 14.9318 12.2208 9.49075 
65 1 1.38362 14.9363 9.49116 
18 1 0.0302727 16.2887 10.8537 
218 2 8.00192 8.32 6.21984 
217 1 12.2265 14.9308 14.9316 
45 1 4.07952 9.51904 12.2257 
120 1 5.44162 8.16306 13.5737 
117 1 9.51776 9.51805 12.2302 
214 1 13.5788 10.8678 13.5755 
189 1 14.9419 9.51794 12.2157 
67 1 1.37674 12.2296 12.2057 
70 1 2.7229 10.8765 13.5712 
139 1 6.80023 12.2395 12.2252 
142 1 8.15589 10.8772 13.5732 
216 1 10.8699 13.5795 13.5741 
211 1 12.2277 12.2258 12.2186 
72 1 16.2881 13.5808 13.5695 
69 1 4.09007 14.9427 12.2055 
144 1 5.44292 13.5963 13.5708 
94 1 8.15913 16.2899 13.5716 
141 1 9.51689 14.938 12.2168 
166 1 13.5838 16.2856 13.573 
213 1 14.9365 14.9341 12.2097 
49 1 1.3789 9.5157 14.9324 
28 1 2.74134 8.16339 16.2867 
121 1 6.7958 9.5233 14.9207 
100 1 8.15199 8.16764 16.2749 
193 1 12.2178 9.51882 14.9385 
172 1 13.5919 8.1621 16.2751 
122 1 5.42937 10.8899 16.2538 
71 1 4.07587 12.2436 14.9127 
143 1 9.51061 12.2269 14.9306 
215 1 14.932 12.2259 14.9302 
50 1 16.2869 10.8717 16.2867 
52 1 2.7288 13.5912 16.28 
73 1 1.377 14.9424 14.923 
145 1 6.80327 14.941 14.9319 
124 1 8.15573 13.5787 16.2858 
146 1 10.8698 16.2798 16.2918 
ITEM: TIMESTEP
4
ITEM: NUMBER OF ATOMS
217
ITEM: BOX BOUNDS
0.027376266105042305 16.29262373389485
0.027376266105042305 16.29262373389485
0.027376266105042305 16.29262373389485
ITEM: ATOMS id type x y z 
3 1 1.39068 1.38202 1.37876 
75 1 6.80486 1.38621 1.38048 
152 1 10.8737 2.73367 2.72693 
147 1 12.2296 1.37241 1.37637 
2 1 0.0297538 16.2898 16.2895 
4 1 2.74904 2.74424 0.0291834 
5 1 4.10712 4.10975 1.38415 
102 1 8.15419 5.43694 2.68415 
77 1 9.52323 4.07977 1.35505 
149 1 14.9468 4.08799 1.37689 
174 1 13.5867 5.4453 2.72664 
27 1 1.39862 6.80602 1.38333 
98 1 5.45837 5.47363 0.0343773 
99 1 6.79492 6.86237 1.39834 
171 1 12.2407 6.79532 1.35381 
6 1 2.74552 16.2926 2.73643 
7 1 4.1041 1.39038 4.08647 
82 1 5.45645 16.2919 5.43616 
79 1 9.51381 1.38299 4.08429 
84 1 8.16469 2.75035 5.43935 
151 1 14.9443 1.37543 4.08259 
8 1 0.0435925 2.74251 2.73757 
9 1 1.41065 4.11431 4.08084 
80 1 5.46108 2.75491 2.74164 
81 1 6.81599 4.12498 4.09488 
153 1 12.2246 4.09531 4.08455 
30 1 2.78781 5.49144 2.75021 
31 1 4.17646 6.88873 4.07466 
103 1 9.52493 6.79914 3.9887 
180 1 13.5742 8.15547 5.43758 
175 1 14.9392 6.80428 4.08347 
34 1 0.0393781 5.45486 5.43693 
106 1 5.52346 5.54574 5.46778 
11 1 1.39795 1.38756 6.78332 
16 1 0.0340142 2.73473 8.1412 
83 1 6.80963 1.38815 6.78987 
155 1 12.2241 1.37679 6.78659 
156 1 13.5844 2.73482 5.43484 
12 1 2.76357 2.76094 5.44148 
13 1 4.13311 4.14015 6.77676 
88 1 5.45716 2.75396 8.14023 
85 1 9.51589 4.10835 6.79702 
178 1 10.8598 5.46276 5.42753 
157 1 14.9439 4.09325 6.78701 
44 1 2.7253 8.16422 10.8688 
35 1 1.39982 6.81409 6.78724 
38 1 2.74683 5.45461 8.14507 
107 1 6.87494 6.90665 6.91342 
40 1 0.0332795 8.16002 8.14318 
179 1 12.2184 6.80299 6.79625 
15 1 4.09985 1.38751 9.49138 
87 1 9.515 1.37884 9.49775 
92 1 8.16119 2.7336 10.8592 
160 1 10.8711 2.73828 8.14251 
159 1 14.9407 1.37696 9.49523 
17 1 1.38913 4.0919 9.49657 
42 1 0.0307632 5.44409 10.8559 
20 1 2.74265 2.73591 10.8552 
89 1 6.80787 4.09872 9.51181 
161 1 12.2312 4.08768 9.50221 
182 1 13.5839 5.44607 8.14385 
39 1 4.07713 6.80481 9.52535 
114 1 5.44697 5.44957 10.8675 
184 1 10.8703 8.13248 8.18923 
110 1 8.18633 5.45814 8.18972 
111 1 9.52752 6.79554 9.55308 
188 1 13.5874 8.15682 10.8614 
183 1 14.9417 6.80257 9.50009 
164 1 13.5868 2.7303 10.8556 
19 1 1.3856 1.3803 12.2115 
24 1 0.0328885 2.73368 13.5731 
22 1 2.74017 0.028629 13.5715 
91 1 6.80312 1.37851 12.2127 
163 1 12.2297 1.37435 12.2114 
168 1 10.8753 2.7259 13.5723 
48 1 0.0289915 8.15923 13.5743 
21 1 4.09433 4.08964 12.2189 
96 1 5.45267 2.73803 13.5756 
93 1 9.51725 4.08245 12.2224 
186 1 10.8859 5.4334 10.8792 
165 1 14.9429 4.08623 12.2127 
190 1 13.5923 5.44171 13.5733 
43 1 1.37902 6.79953 12.22 
46 1 2.74043 5.44665 13.5754 
115 1 6.80153 6.80143 12.2265 
116 1 8.15607 8.163 10.8823 
187 1 12.237 6.80077 12.2233 
23 1 4.09613 1.38368 14.9321 
74 1 5.45036 0.0283923 16.2894 
76 1 8.15953 2.72963 16.2776 
95 1 9.51811 1.3721 14.9285 
167 1 14.9414 1.37599 14.9278 
148 1 13.5885 2.72982 16.2869 
25 1 1.389 4.08953 14.9324 
97 1 6.80255 4.09961 14.9372 
169 1 12.2355 4.08182 14.9234 
170 1 10.8792 5.43955 16.2721 
26 1 0.0397288 5.44752 16.2914 
47 1 4.09506 6.8051 14.9315 
118 1 8.16177 5.44362 13.575 
119 1 9.51893 6.79944 14.927 
192 1 10.8749 8.15636 13.5749 
191 1 14.9467 6.79857 14.9297 
32 1 0.0323316 8.15949 2.72994 
29 1 4.10166 9.53524 1.36682 
101 1 9.45746 9.52528 1.39663 
194 1 10.8454 10.8616 0.032456 
176 1 10.8862 8.16778 2.6815 
173 1 14.9358 9.51376 1.3781 
54 1 2.74099 10.8738 2.72107 
51 1 1.38327 12.2282 1.37387 
123 1 6.78215 12.2189 1.36476 
195 1 12.2105 12.2132 1.38112 
196 1 13.5749 13.5716 16.292 
53 1 4.09123 14.9373 1.37435 
128 1 5.44507 13.579 2.72103 
78 1 8.15951 16.2888 2.73042 
125 1 9.51137 14.9223 1.38163 
197 1 14.9372 14.9291 1.37773 
33 1 1.39089 9.51644 4.07993 
36 1 2.76301 8.17497 5.43259 
108 1 7.81929 8.50597 4.47918 
105 2 6.58906 9.73364 3.74358 
126 1 7.95742 10.7679 2.78593 
104 1 5.55496 8.3632 2.78935 
130 1 5.63024 10.6884 5.17241 
198 1 13.5695 10.8612 2.7369 
177 1 12.2028 9.50451 4.08937 
58 1 0.0288154 10.8647 5.43559 
55 1 4.14025 12.1791 4.07383 
60 1 2.76982 13.5505 5.42926 
132 1 8.14603 13.5551 5.42969 
127 1 9.43425 12.145 4.06996 
200 1 10.8295 13.5345 2.74607 
199 1 14.932 12.2176 4.08451 
57 1 1.40097 14.9202 4.08898 
129 1 6.80324 14.9288 4.07963 
150 1 13.5772 16.2771 2.73631 
201 1 12.2053 14.9108 4.07911 
56 1 0.0291914 13.576 2.73501 
202 1 10.785 10.801 5.45923 
154 1 10.8637 16.2811 5.43564 
209 1 12.2248 14.929 9.49463 
62 1 2.7704 10.8608 8.11374 
37 1 4.16934 9.53993 6.7218 
112 1 5.41461 8.20103 8.20856 
134 1 8.12302 10.8973 8.2016 
109 1 9.43141 9.44584 6.90637 
137 1 6.79851 14.9215 9.4842 
206 1 13.5686 10.8636 8.13953 
181 1 14.9342 9.51066 6.78984 
59 1 1.39364 12.2174 6.78413 
64 1 0.0310723 13.5741 8.13845 
131 1 6.78321 12.1464 6.71918 
136 1 5.46069 13.5453 8.11093 
208 1 10.8646 13.5705 8.14174 
203 1 12.1852 12.1892 6.77422 
204 1 13.5618 13.5595 5.43873 
10 1 0.0386404 16.2828 5.43691 
14 1 2.74757 16.2883 8.13826 
61 1 4.10434 14.9254 6.78384 
86 1 8.15907 16.2858 8.14095 
90 1 5.4512 16.289 10.8458 
133 1 9.50523 14.919 6.78495 
205 1 14.9329 14.9244 6.783 
158 1 13.5822 16.2855 8.14038 
41 1 1.39584 9.52115 9.48712 
66 1 0.0290134 10.869 10.8478 
162 1 10.8719 16.2875 10.8532 
113 1 6.78431 9.53631 9.55693 
210 1 10.8694 10.8702 10.8653 
185 1 12.2258 9.51183 9.51244 
63 1 4.09428 12.2254 9.49215 
68 1 2.7375 13.5821 10.8505 
138 1 5.42892 10.8897 10.8862 
140 1 8.15445 13.5896 10.8642 
135 1 9.51428 12.2375 9.52008 
212 1 13.5811 13.5765 10.8542 
207 1 14.9326 12.2211 9.4919 
65 1 1.38403 14.9363 9.49319 
18 1 0.029515 16.2887 10.8546 
218 2 7.89334 8.43564 6.30582 
217 1 12.2269 14.9295 14.9305 
45 1 4.08075 9.51717 12.226 
120 1 5.44333 8.16052 13.573 
117 1 9.51756 9.51681 12.2261 
214 1 13.5797 10.8667 13.5752 
189 1 14.9409 9.51585 12.215 
67 1 1.37851 12.2276 12.2084 
70 1 2.72622 10.8743 13.5738 
139 1 6.80152 12.2374 12.2251 
142 1 8.15723 10.8743 13.5723 
216 1 10.8698 13.5778 13.5731 
211 1 12.2275 12.2239 12.2173 
72 1 16.2899 13.5795 13.5711 
69 1 4.09227 14.9408 12.2079 
144 1 5.44472 13.5924 13.5732 
94 1 8.1588 16.2892 13.5716 
141 1 9.51681 14.9378 12.2163 
166 1 13.5832 16.2854 13.572 
213 1 14.937 14.9329 12.2109 
49 1 1.38313 9.5123 14.9347 
28 1 2.74719 8.16044 16.2898 
121 1 6.79938 9.51851 14.9206 
100 1 8.1567 8.16228 16.2724 
193 1 12.2191 9.516 14.9366 
172 1 13.5902 8.1594 16.2768 
122 1 5.43646 10.8815 16.2604 
71 1 4.08198 12.2369 14.9179 
143 1 9.5121 12.2237 14.9301 
215 1 14.9351 12.2231 14.9311 
50 1 16.2921 10.8696 16.2881 
52 1 2.73435 13.5856 16.2834 
73 1 1.381 14.938 14.9259 
145 1 6.80566 14.9369 14.9336 
124 1 8.15737 13.5727 16.2882 
146 1 10.8701 16.28 16.2897 
ITEM: TIMESTEP
5
ITEM: NUMBER OF ATOMS
217
ITEM: BOX BOUNDS
0.027376266105042305 16.29262373389485
0.027376266105042305 16.29262373389485
0.027376266105042305 16.29262373389485
ITEM: ATOMS id type x y z 
3 1 1.39263 1.3789 1.3791 
75 1 6.80513 1.38511 1.38075 
152 1 10.8742 2.73324 2.7273 
147 1 12.2294 1.37168 1.37549 
2 1 0.030798 16.2882 16.2892 
4 1 2.74981 2.74222 0.0289146 
5 1 4.10769 4.10806 1.38375 
102 1 8.15944 5.44085 2.69315 
77 1 9.52378 4.08181 1.35898 
149 1 14.9469 4.08693 1.37604 
174 1 13.5869 5.44421 2.72678 
27 1 1.39962 6.80478 1.38267 
98 1 5.46011 5.4708 0.0340914 
99 1 6.80322 6.8537 1.39629 
171 1 12.2385 6.794 1.35715 
6 1 2.74874 16.2883 2.73686 
7 1 4.10497 1.38919 4.0863 
82 1 5.45686 16.2906 5.43622 
79 1 9.51319 1.38286 4.08387 
84 1 8.16379 2.75123 5.4385 
151 1 14.9452 1.37404 4.08233 
8 1 0.044149 2.74056 2.73635 
9 1 1.41036 4.11253 4.08022 
80 1 5.46189 2.75443 2.74175 
81 1 6.81496 4.12592 4.09499 
153 1 12.2219 4.09782 4.08503 
30 1 2.78728 5.4891 2.74925 
31 1 4.17341 6.88608 4.07492 
103 1 9.49861 6.82754 4.00865 
180 1 13.5761 8.15622 5.43629 
175 1 14.9402 6.80372 4.08257 
34 1 0.0389761 5.45338 5.43626 
106 1 5.51599 5.54305 5.46332 
11 1 1.39809 1.38689 6.78302 
16 1 0.0332039 2.7339 8.14093 
83 1 6.80949 1.38822 6.78901 
155 1 12.2226 1.37824 6.78644 
156 1 13.5836 2.73494 5.43374 
12 1 2.7637 2.75979 5.44106 
13 1 4.13126 4.13946 6.7769 
88 1 5.45758 2.75516 8.13871 
85 1 9.51259 4.11469 6.79324 
178 1 10.853 5.47131 5.42278 
157 1 14.9429 4.09286 6.78678 
44 1 2.72517 8.16295 10.8691 
35 1 1.39821 6.81262 6.78748 
38 1 2.74515 5.45338 8.14492 
107 1 6.86753 6.92467 6.88253 
40 1 0.0328595 8.15957 8.14346 
179 1 12.2169 6.80478 6.79269 
15 1 4.10092 1.38796 9.49113 
87 1 9.51408 1.38075 9.49575 
92 1 8.15903 2.73899 10.8524 
160 1 10.8677 2.74211 8.13949 
159 1 14.9396 1.37697 9.49569 
17 1 1.38826 4.09078 9.49692 
42 1 0.0300518 5.44388 10.8559 
20 1 2.743 2.73534 10.8553 
89 1 6.81 4.10828 9.50058 
161 1 12.2291 4.08914 9.49982 
182 1 13.5821 5.44729 8.14208 
39 1 4.0757 6.80401 9.52397 
114 1 5.44767 5.44986 10.864 
184 1 10.8602 8.13888 8.17133 
110 1 8.1786 5.4766 8.16996 
111 1 9.52256 6.80245 9.53971 
188 1 13.5837 8.15782 10.857 
183 1 14.9405 6.80232 9.49947 
164 1 13.5846 2.73116 10.8546 
19 1 1.38622 1.37945 12.2123 
24 1 0.0326066 2.73329 13.5728 
22 1 2.74091 16.2923 13.5729 
91 1 6.80495 1.38056 12.2102 
163 1 12.2283 1.37431 12.2107 
168 1 10.8733 2.72719 13.5697 
48 1 0.0292032 8.15919 13.5749 
21 1 4.0961 4.08921 12.2176 
96 1 5.45336 2.73663 13.5753 
93 1 9.51667 4.08472 12.2169 
186 1 10.8806 5.43821 10.8701 
165 1 14.9418 4.08592 12.2122 
190 1 13.5902 5.44226 13.5712 
43 1 1.37908 6.79866 12.2206 
46 1 2.74184 5.44584 13.5752 
115 1 6.80216 6.80124 12.2233 
116 1 8.15469 8.16385 10.8774 