LAMMPS data file via write_data, version 19 Nov 2024, timestep = 60100, units = metal

1728 atoms
1 atom types

-0.025767778111717377 32.60576777811157 xlo xhi
-0.025767778111717377 32.60576777811157 ylo yhi
-0.025767778111717377 32.60576777811157 zlo zhi

Atom Type Labels

1 Si

Masses

1 28.0855

Atoms # atomic

5 1 1.3484600092802763 1.2903240792733774 1.3902079958746616 0 0 0
1187 1 24.36540461906739 16.213462424027117 13.652433709283335 0 0 0
10 1 5.366989042174689 2.6324092933030134 2.663223295530826 0 0 0
1171 1 13.58432120544206 16.22372849627656 13.622775715774734 0 0 0
13 1 6.865839516355829 1.3860374040476342 1.2831786948038044 0 0 0
18 1 10.781699070878739 2.7722373304693635 2.6489231341952926 0 0 0
21 1 12.213706162509993 1.3825528864927519 1.2317979072044212 0 0 0
25 1 16.33664903471795 0.018702174970863666 -0.010111649917457924 0 0 0
26 1 16.236963854070833 2.6964041556197995 2.615799733953567 0 0 0
29 1 17.68365205490442 1.4084786854525702 1.3035438396779753 0 0 0
1155 1 2.730597518603365 16.2375707686788 13.495467337884742 0 0 0
386 1 32.53275099686589 13.550292471488728 13.628941674066429 -1 0 0
34 1 21.71118211633737 2.8000692800874196 2.624626543766794 0 0 0
37 1 23.11478796819694 1.3740461820314596 1.2506906683067305 0 0 0
35 1 24.449297815672757 0.007407111214460546 2.6204705240223976 0 0 0
42 1 27.2599783131651 2.8356002152319855 2.5441949087400473 0 0 0
45 1 28.54192989100543 1.31157366186159 1.4020189722985066 0 0 0
2 1 0.031315803089860594 2.7752044969188994 2.652197834874286 0 0 0
44 1 29.795290289509985 2.6781294734364733 -0.0014272821676110988 0 0 0
49 1 32.594945169034894 5.50457550604663 -0.009012295588229826 -1 0 0
51 1 2.737832523335002 5.400447808281207 2.745992296514601 0 0 0
8 1 4.063161809838774 4.014759993429584 1.464949386192414 0 0 0
59 1 8.089816171932709 5.49722921135304 2.64850520164606 0 0 0
16 1 9.3615632527748 4.092037014044861 1.3351709048125182 0 0 0
67 1 13.58593543397167 5.450908340723881 2.7431382629373946 0 0 0
24 1 14.82794558021668 4.146623950568645 1.4807665530173006 0 0 0
73 1 16.26313905232386 5.482624800544553 0.09454784218322973 0 0 0
32 1 20.27538782819058 4.08202001678895 1.3452230073316913 0 0 0
75 1 18.885190668436064 5.42243171852155 2.7326060076259533 0 0 0
40 1 25.839308772679452 4.127696147965178 1.2331398913413643 0 0 0
83 1 24.449248819752583 5.346924169572792 2.702216516045954 0 0 0
289 1 32.59509788896367 0.016176482792047864 10.92458769192177 -1 0 0
48 1 31.24211551131514 4.061723845764606 1.1986894962859715 0 0 0
91 1 29.925889583877037 5.428909677950806 2.616579481780741 0 0 0
50 1 0.05743502862730844 8.107480199333208 2.7360280289991006 0 0 0
53 1 1.3473580221427446 6.702697179302677 1.383788482548878 0 0 0
56 1 3.9828640353458336 9.491027637340666 1.4076525958407073 0 0 0
58 1 5.485548519670583 8.248376549872493 2.751030590402641 0 0 0
61 1 6.754009146853571 6.8525036187128014 1.4114813004056923 0 0 0
64 1 9.377800742943714 9.456817720567809 1.2745894258773507 0 0 0
66 1 10.913383336931417 8.244112314443067 2.7208150257366572 0 0 0
69 1 12.150498790037334 6.827432916149596 1.3970295777615764 0 0 0
72 1 14.944611440665575 9.529485594190826 1.2587487058079752 0 0 0
74 1 16.338936211187573 8.267937055503861 2.5810754293231715 0 0 0
77 1 17.63375803812798 6.853566790548117 1.3442212990871152 0 0 0
329 1 27.19255121070955 -0.014395565667022936 10.835770899222146 0 0 0
80 1 20.40042642041952 9.42989143302849 1.2385597897258311 0 0 0
82 1 21.663761254429552 8.15343263525773 2.69714379521259 0 0 0
85 1 23.05741203357079 6.737389006026372 1.2891282303166098 0 0 0
321 1 21.695259082915182 0.011425350519871813 11.041450219945276 0 0 0
88 1 25.752717496261443 9.330507352562284 1.4423833313550545 0 0 0
90 1 27.214079931536975 8.15202855475747 2.758640169239715 0 0 0
93 1 28.523951786727846 6.93547108744042 1.392065643857285 0 0 0
92 1 29.83751823890293 8.275644135532936 0.01204175010519263 0 0 0
96 1 31.265028431032857 9.470655992804275 1.3567958371632927 0 0 0
99 1 2.609343352249714 10.924921946716884 2.7097315041816152 0 0 0
101 1 1.3317139159558216 12.205990316384243 1.2786713885085315 0 0 0
107 1 8.236326532998484 10.862540131427025 2.71763201691516 0 0 0
109 1 6.73930855405442 12.181056030825303 1.501361415659375 0 0 0
313 1 16.279213488802686 0.09367678379432931 10.685319246150346 0 0 0
115 1 13.652313760789973 10.918048382273708 2.5093337010501644 0 0 0
117 1 12.093449653461068 12.15743614548359 1.2812067866425783 0 0 0
121 1 16.24009132397845 10.922845860418988 0.07647882544470332 0 0 0
125 1 17.544890447071822 12.247117258230396 1.476052520710434 0 0 0
123 1 19.06020089436844 10.830121464807124 2.7102597963307145 0 0 0
133 1 23.056600645741128 12.276129990867714 1.2806106700195288 0 0 0
131 1 24.328343153768863 10.822126367939465 2.7135662291056173 0 0 0
141 1 28.492745859581945 12.245551819334421 1.5605122319737756 0 0 0
1193 1 27.12879490163653 16.234307623797594 10.820694492067098 0 0 0
139 1 29.927360122493262 10.841541600923499 2.7490458659621035 0 0 0
1185 1 21.722519162657996 16.22481272843626 10.939559747157574 0 0 0
104 1 4.065543797203584 14.890510932877076 1.1820077499097177 0 0 0
106 1 5.404579835878988 13.571919246836941 2.7721532142189407 0 0 0
108 1 8.251704150329426 13.506160481619096 0.1851086995229717 0 0 0
112 1 9.4241611477558 15.015380525438834 1.394081674056022 0 0 0
114 1 10.838472864859602 13.543578823766163 2.7065156245536373 0 0 0
147 1 2.7454477616636415 0.05015705395610581 8.133205800152894 0 0 0
1195 1 29.84411248465633 16.204595018025802 13.601310363796962 0 0 0
120 1 14.772523552984005 15.057495297003763 1.3335106538667734 0 0 0
122 1 16.169012602767612 13.680682314311202 2.614066739749522 0 0 0
128 1 20.332272549239203 14.990949188096014 1.2615704501702139 0 0 0
426 1 27.211607753875757 13.499455775543616 13.579411621057007 0 0 0
130 1 21.673286996919394 13.674748730096473 2.6231978252506662 0 0 0
430 1 28.469144167165215 14.878493891581458 14.970619259933306 0 0 0
564 1 24.46781573293688 13.574575780481668 16.202811971801438 0 0 0
136 1 25.727854841055446 14.955695199129988 1.385293326974796 0 0 0
138 1 27.101867414565334 13.602009481768691 2.814609712846613 0 0 0
98 1 32.588796356705416 13.527211652071427 2.725635705270062 -1 0 0
907 1 29.831001181697847 16.26151221772808 2.66711196457464 0 0 0
144 1 31.211108811562237 14.890341082172107 1.2626512179756162 0 0 0
418 1 21.621068578865177 13.588636733946812 13.627141171567144 0 0 0
148 1 2.554410007248375 2.674244445382821 5.38826725627722 0 0 0
7 1 4.005685483731277 1.3014170510923377 4.046110119244619 0 0 0
156 1 8.108483044442975 2.670066825227312 5.35954818463494 0 0 0
15 1 9.443564466186315 1.4356222764039048 3.9440610290264986 0 0 0
164 1 13.607513958894312 2.6592430069285933 5.499477521310958 0 0 0
23 1 14.925629917010296 1.3500914003119338 4.071619851087787 0 0 0
31 1 20.42963846587883 1.3094361365411695 3.9509567902136924 0 0 0
172 1 19.085786378777204 2.714766027223491 5.369857859806736 0 0 0
422 1 22.852378781281402 14.967813829275928 15.017394767039663 0 0 0
39 1 25.933814962410896 1.4263056070696012 3.930405074050067 0 0 0
180 1 24.436736362794505 2.6887784457849904 5.305555918604654 0 0 0
47 1 31.259379720879256 1.3559997026877226 4.004202269051187 0 0 0
188 1 29.957948706541302 2.7239821028337636 5.311516481641461 0 0 0
6 1 1.3175384217403436 4.132315068404017 4.106569774796111 0 0 0
193 1 32.57893128945082 5.4474372838561225 5.579036207705252 -1 0 0
201 1 5.307425796241867 5.3876028423900255 5.408749258181367 0 0 0
14 1 6.744292312050827 4.0805420858665675 3.993125105609235 0 0 0
209 1 10.958485516715692 5.448225374935526 5.3713780055794285 0 0 0
22 1 12.269659528062848 4.030415237096211 4.086262643210294 0 0 0
30 1 17.639574408216742 4.022586370897085 4.071012506014568 0 0 0
217 1 16.315994163374828 5.400193010739782 5.428830889421849 0 0 0
38 1 23.082877213888306 4.113087252991807 4.088850244928448 0 0 0
225 1 21.64224827708514 5.5203547200999274 5.456311153725268 0 0 0
46 1 28.544599620709636 4.095126888682116 3.8908795242179477 0 0 0
233 1 27.177101563725152 5.381481567368135 5.286272157066311 0 0 0
54 1 1.3176120002958334 9.549501624848855 4.116838678092523 0 0 0
196 1 2.6528519656749188 8.098740568122386 5.372904002166926 0 0 0
55 1 4.097687415383049 6.80367607567989 4.064476532945677 0 0 0
62 1 6.8256818701878155 9.568946626702516 4.078536489027207 0 0 0
204 1 8.162902165528932 8.19730456596265 5.439202048741844 0 0 0
63 1 9.490060554409046 6.857216109570907 4.044602122252991 0 0 0
70 1 12.332775679250748 9.623485784123977 4.121991678229297 0 0 0
212 1 13.720338401665186 8.194585764248458 5.487611215185404 0 0 0
71 1 15.059987261769622 6.916769083518112 4.006675597550226 0 0 0
78 1 17.672316836369696 9.518028695993829 4.11602976055552 0 0 0
79 1 20.18915852385229 6.760077838192293 4.006824018181967 0 0 0
220 1 18.99776173612135 8.114722677740883 5.533335061085821 0 0 0
86 1 23.035604391289944 9.42560415000039 4.160078815447827 0 0 0
87 1 25.70149426100342 6.819040975359621 4.001644633852455 0 0 0
228 1 24.47645934981989 8.09747168474119 5.47225681083534 0 0 0
94 1 28.55169710865005 9.560220369468682 4.039217866427993 0 0 0
95 1 31.391958146246225 6.726571704881236 4.005334116473072 0 0 0
236 1 29.9039604581721 8.061519345776864 5.2194401884567565 0 0 0
241 1 0.01220814167659907 10.851968271201779 5.532865338126019 0 0 0
103 1 3.942776787149479 12.314717181726637 4.125162594512003 0 0 0
249 1 5.305408003616661 10.869476940210442 5.514322623458642 0 0 0
111 1 9.443020940835433 12.258721441279087 4.078039328257785 0 0 0
257 1 10.771080280839515 10.82863776980975 5.468491794909162 0 0 0
119 1 14.902078266220098 12.222621296037149 3.9310452725756395 0 0 0
265 1 16.23174879548447 11.017203279513376 5.394888443790291 0 0 0
127 1 20.49940498913109 12.243295667773909 4.08657798550409 0 0 0
273 1 21.735711315190944 10.829745321000217 5.496195848317215 0 0 0
135 1 25.742420735167627 12.158799764187238 4.078224110240374 0 0 0
281 1 27.168231035745144 10.846813728970837 5.45502576264954 0 0 0
143 1 31.33901146879232 12.205204898067878 4.110001870440539 0 0 0
556 1 18.90734115828502 13.644512737334237 16.253773472372266 0 0 0
102 1 1.2870268528673559 14.958759666523697 4.072073353023565 0 0 0
244 1 2.748357870509942 13.706610330144164 5.3807606894630435 0 0 0
1179 1 18.928936425084327 16.22038757436365 13.536208044990246 0 0 0
110 1 6.719544243025845 14.941144797624949 4.055396298738624 0 0 0
252 1 8.044012037711779 13.62677389193258 5.515973804315186 0 0 0
118 1 12.303072013482522 14.880990325373578 3.975321819155489 0 0 0
260 1 13.62511736590377 13.55322407849435 5.474944091492925 0 0 0
1321 1 16.37752201950205 16.267722918782137 16.264771983087417 0 0 0
126 1 17.61653612554135 14.945433679024944 3.973714499657007 0 0 0
268 1 18.977037038254135 13.621315804092488 5.270554278727056 0 0 0
134 1 23.0431214454 14.831206065170141 4.089566135346177 0 0 0
276 1 24.38826004517712 13.521157349195642 5.510944996018566 0 0 0
410 1 16.17591901166146 13.541966476648339 13.450573843802369 0 0 0
142 1 28.545202329944043 14.942581250985826 4.150759987502722 0 0 0
284 1 30.044529097698813 13.655564509763687 5.375346714289999 0 0 0
149 1 1.3365018528564152 1.3688642694692974 6.820384329516351 0 0 0
151 1 4.109171211421518 1.408104988800875 9.562154433639117 0 0 0
154 1 5.432448180645582 2.8082784842434347 8.151608339258269 0 0 0
157 1 6.776125549352073 1.3855430273993896 6.83593307673359 0 0 0
159 1 9.479214002293752 1.259236470825992 9.441932480838867 0 0 0
162 1 10.807361328492735 2.8191258320624355 8.188221684928413 0 0 0
163 1 13.505347544449968 0.08827655698764701 8.040488224478029 0 0 0
165 1 12.111946747650057 1.4337724005150925 6.810871025691957 0 0 0
167 1 14.823340304278075 1.3869426389157031 9.355530422756448 0 0 0
170 1 16.234853171835322 2.6946511786533773 8.02097958631937 0 0 0
173 1 17.71313701332863 1.3026221375973142 6.799158857614686 0 0 0
175 1 20.422436580076923 1.4224931854562695 9.520361148911535 0 0 0
178 1 21.673002362589767 2.6720128929540494 8.14963796611686 0 0 0
181 1 23.002323166471744 1.2970393218622516 6.679265825974938 0 0 0
414 1 17.49061641327626 14.80910203026145 14.836596796318716 0 0 0
183 1 25.836182699257606 1.3084368186850837 9.406968381113924 0 0 0
186 1 27.257323819635413 2.67049436135272 8.057038919209667 0 0 0
189 1 28.65973096366645 1.294483788683858 6.6208808759361855 0 0 0
146 1 32.589403442030594 2.7137741578517236 8.15713339969276 -1 0 0
187 1 30.00219395943346 0.03162810242023052 8.113546413436623 0 0 0
191 1 31.25071540389951 1.3481228032005923 9.573788430349335 0 0 0
150 1 1.3743356370268918 4.185970744905153 9.526203929071428 0 0 0
195 1 2.757213994528575 5.445157142587716 8.144382858178364 0 0 0
152 1 4.0012476357676405 4.037189961120977 6.703787781882181 0 0 0
158 1 6.773458697755152 4.14836435455114 9.335634245545334 0 0 0
203 1 8.228498650913522 5.413486033950988 8.018131860481192 0 0 0
160 1 9.56829933739709 4.089578212747022 6.645666414523574 0 0 0
166 1 12.26940964341054 4.136032605716022 9.445678238727014 0 0 0
211 1 13.578285146541315 5.462292010746139 8.04671808884427 0 0 0
168 1 14.904678712881667 4.06748272280781 6.640840592404741 0 0 0
174 1 17.626050565866418 4.014956257208606 9.469815654990395 0 0 0
176 1 20.439230632851515 4.055992357555652 6.7442748675178805 0 0 0
219 1 18.992344583209817 5.280913968360158 8.109442700321344 0 0 0
182 1 23.184772275900666 3.90742148118962 9.423404786450288 0 0 0
184 1 25.86233607385958 4.072421355909817 6.727038520907111 0 0 0
227 1 24.565829820113603 5.3670246577379945 8.088036632243615 0 0 0
190 1 28.55188711066267 3.998155058707012 9.463621511024625 0 0 0
192 1 31.16139973992564 4.066469833380097 6.857244570616371 0 0 0
235 1 29.706877161405437 5.416914911926511 8.107735650783264 0 0 0
197 1 1.3505666717439961 6.834103323011357 6.868375789206432 0 0 0
198 1 1.3698353567906896 9.559901417858818 9.576254463323815 0 0 0
199 1 4.141469712848754 6.709693036978392 9.471534673538851 0 0 0
200 1 4.002015985420695 9.45970478836618 6.831977143067769 0 0 0
202 1 5.415880377094041 8.024621171266503 8.157316220061519 0 0 0
205 1 6.719995178836044 6.74897665940157 6.6696345555969 0 0 0
206 1 6.826849994694377 9.256220784646299 9.374923280605259 0 0 0
207 1 9.561923484585975 6.667890314157376 9.395558780078883 0 0 0
208 1 9.515086530519588 9.351896803235462 6.811207038031354 0 0 0
210 1 10.923338107535509 8.12424608374418 8.168921511448465 0 0 0
213 1 12.223412245626902 6.814081463061217 6.773278734238699 0 0 0
214 1 12.189747455782658 9.71390198262845 9.4225892841772 0 0 0
215 1 15.01917010537966 6.847578273326574 9.349940928662095 0 0 0
216 1 15.078882298381888 9.587353009053416 6.896309605825318 0 0 0
218 1 16.45273540886022 8.171815497214727 8.092781963402242 0 0 0
221 1 17.696467169096902 6.641286095240264 6.819111803629244 0 0 0
222 1 17.796370092574108 9.531534141872472 9.526869269207042 0 0 0
223 1 20.382115795568602 6.7513706775537985 9.445577313128693 0 0 0
224 1 20.454314205356 9.52194360331822 6.896257256960621 0 0 0
226 1 21.771243885281212 8.039247890212344 8.104979438334622 0 0 0
229 1 23.121926162251253 6.74024796663649 6.856708759242442 0 0 0
230 1 23.080741710244972 9.483970602575075 9.562873081494528 0 0 0
231 1 25.83889697734505 6.8220491714253555 9.521978100609534 0 0 0
232 1 25.832018394357547 9.440597526486524 6.7676668741057195 0 0 0
234 1 27.23318489259894 8.124134265176322 8.097066807613695 0 0 0
237 1 28.491642873650814 6.7219883319015565 6.730893148434576 0 0 0
238 1 28.47610108256629 9.579017850461815 9.4049910711211 0 0 0
194 1 32.521265157999615 8.191855787766414 8.230492813869919 -1 0 0
239 1 31.11227223870585 6.755336746876776 9.5039183389276 0 0 0
240 1 31.206420599359763 9.499372127819305 6.696164540193818 0 0 0
243 1 2.7717496226054017 10.986706492567796 8.240713099967493 0 0 0
245 1 1.4068328309004352 12.372276440797927 6.721786706798614 0 0 0
247 1 4.240702832157625 12.27858103469504 9.521189396837574 0 0 0
251 1 8.162580922629578 10.78567150933928 8.118768333304043 0 0 0
253 1 6.788549321615447 12.118772031646062 6.81181377228356 0 0 0
255 1 9.511086135557601 12.265747548890356 9.433451826435991 0 0 0
259 1 13.57305624791426 10.925200579900656 8.01691953352566 0 0 0
261 1 12.187168346227352 12.156355935598187 6.707466599330258 0 0 0
263 1 15.000596410520886 12.16379536653313 9.519817761427177 0 0 0
269 1 17.72513351222476 12.227129430991356 6.624998771950522 0 0 0
267 1 19.02458471441555 10.923728316275032 8.062635503250736 0 0 0
271 1 20.37061060548282 12.364825263565102 9.403922123472032 0 0 0
277 1 23.113141637349692 12.111616622731107 6.796660443036886 0 0 0
275 1 24.505135575405173 10.738925711245905 8.142460568887 0 0 0
279 1 25.8892367204877 12.196877439118117 9.474255477252285 0 0 0
285 1 28.57648466317696 12.25301161313114 6.624092292146864 0 0 0
283 1 29.870918491622014 10.877441340353599 8.055949563610392 0 0 0
287 1 31.22941697694433 12.277423529093669 9.492976336425418 0 0 0
185 1 27.18119488201122 0.04414677783098142 5.289200525842387 0 0 0
242 1 32.601389536645534 13.575626510070798 8.139961255679408 -1 0 0
246 1 1.3726035501746228 14.944137934553073 9.500322720327983 0 0 0
248 1 4.100364709651072 14.967624421059085 6.818827412205973 0 0 0
250 1 5.507855740265119 13.651108063923521 8.225393748522235 0 0 0
254 1 6.8044229543552195 15.0633828119223 9.433275861379446 0 0 0
256 1 9.464405103114721 14.99125905121943 6.8264754226626785 0 0 0
258 1 10.95838029972345 13.609955911472415 8.047419384747696 0 0 0
262 1 12.18433223240515 15.053714848673401 9.473544008615894 0 0 0
264 1 15.04256185176853 14.886522749128003 6.780810481549531 0 0 0
266 1 16.408939926933524 13.501760743149976 8.105415375197937 0 0 0
270 1 17.686226840543664 14.979972372299697 9.39066676711998 0 0 0
406 1 12.158351780625917 15.005772058181698 14.952798094681224 0 0 0
272 1 20.37112775349921 14.914858229186892 6.742174993772527 0 0 0
274 1 21.73199207972561 13.603310373834798 8.0380078655438 0 0 0
278 1 23.03133210819296 14.965728747607793 9.483310910731241 0 0 0
1043 1 24.37376380113508 16.214143550226147 8.083619893644496 0 0 0
280 1 25.839362761043073 14.952722376116682 6.816950508453297 0 0 0
282 1 27.126694670978193 13.52548351281925 8.017047105341515 0 0 0
286 1 28.4859934434597 14.80678692760511 9.482082897452393 0 0 0
1051 1 29.765644559479433 16.19243151003752 8.043325119777071 0 0 0
288 1 31.270672329168985 14.961499558770297 6.766145851792902 0 0 0
292 1 2.686260310548741 2.8090099529887884 10.93365262505912 0 0 0
293 1 1.3363937877838619 1.3441704893487936 12.234936181066248 0 0 0
297 1 5.436827325568364 0.02138402092720848 10.823743205300953 0 0 0
300 1 8.157967957034488 2.774223091887946 10.804907701972171 0 0 0
301 1 6.7835664201479045 1.3988459601609935 12.220079531300513 0 0 0
308 1 13.491481948851343 2.7284462634015307 10.707362947164045 0 0 0
309 1 12.198985742961165 1.313343987523376 12.030684739834903 0 0 0
317 1 17.639213124072086 1.352188162452591 12.171583180653371 0 0 0
316 1 18.93615155560943 2.7289280881457176 10.880256916026742 0 0 0
325 1 23.134827476723125 1.256615721823946 12.267471341762397 0 0 0
324 1 24.5430981618626 2.5699871918268977 10.80875326954891 0 0 0
333 1 28.539643754759968 1.359676357874529 12.276537193744335 0 0 0
332 1 29.879773860055003 2.7030286020133194 10.943256857698902 0 0 0
296 1 4.047924985408747 4.08461055471097 12.2403362189112 0 0 0
345 1 5.465697852865224 5.416216973840835 10.830742862581866 0 0 0
304 1 9.470282676318842 4.11591800502251 12.08437840644395 0 0 0
353 1 10.816610364519315 5.384706315564725 10.818084373496472 0 0 0
312 1 14.828137912204822 4.101235245170015 12.177216792175908 0 0 0
361 1 16.293049551648167 5.377767783068132 10.78627981023691 0 0 0
320 1 20.374877173044396 4.057103936274784 12.227976103191832 0 0 0
369 1 21.692391188136472 5.34268455181263 10.714131783317624 0 0 0
328 1 25.758223469018947 4.011093175850057 12.108933135812547 0 0 0
377 1 27.211838250271118 5.371704633534201 10.823551538333883 0 0 0
337 1 -0.016078738391215097 5.443698435034623 10.85300218541488 0 0 0
336 1 31.322731924625376 4.078967154559879 12.198758067270935 0 0 0
340 1 2.8299886574756887 8.042352137469646 10.86580873815467 0 0 0
341 1 1.3148854464168245 6.811014151964588 12.262139698671263 0 0 0
344 1 4.181198313740515 9.49705999737066 12.154283417795066 0 0 0
348 1 8.172174680203673 7.981523662738033 10.792617273571379 0 0 0
349 1 6.84630765180353 6.731921503572759 12.193933705146103 0 0 0
352 1 9.555322251689368 9.511001565568021 11.96729293997861 0 0 0
356 1 13.490795954233217 8.256916057387636 10.775230645794245 0 0 0
357 1 12.133717167626143 6.7626594231973005 12.195858419116973 0 0 0
360 1 14.910079454981581 9.517350091093547 12.197585061158579 0 0 0
365 1 17.702609573118888 6.775689514695431 12.11892799671463 0 0 0
364 1 19.150842215034626 8.138451611069234 10.764634000539733 0 0 0
368 1 20.48391447394546 9.49133549551587 12.14854842077656 0 0 0
373 1 23.077427614139967 6.799156003776608 12.025052691824996 0 0 0
372 1 24.454035108249943 8.133233684277386 10.831926687730478 0 0 0
376 1 25.79271924519933 9.44421002888306 12.19195782706255 0 0 0
381 1 28.656332797842875 6.730902789148156 12.124062728914469 0 0 0
380 1 29.886751891121765 8.351888929690059 10.791956195051677 0 0 0
384 1 31.207795893270873 9.580089795114896 12.259691621274946 0 0 0
385 1 32.58382899139239 10.8673819825605 10.877138512713339 -1 0 0
389 1 1.3443209558417943 12.235236716132233 12.21331017068051 0 0 0
393 1 5.538309027180468 10.750926817148434 10.780757359688021 0 0 0
397 1 6.859269649118618 12.19298678152943 12.17753072254624 0 0 0
401 1 10.812027733472704 11.048501946091545 10.809872731596165 0 0 0
405 1 12.160282611339175 12.443473227618112 12.228211306069095 0 0 0
409 1 16.300587737762083 10.820105068922958 10.885956623573103 0 0 0
413 1 17.58909373164539 12.078524434753477 12.150666754160593 0 0 0
417 1 21.7706737247696 10.98487683151973 10.845071645664225 0 0 0
421 1 23.146319374769867 12.223205316170123 12.159294833961054 0 0 0
425 1 27.187867330697078 10.811602478924764 10.903712731609536 0 0 0
429 1 28.576041624356705 12.182728946032505 12.30447791723718 0 0 0
402 1 10.642943217099605 13.733114161174905 13.62433966337251 0 0 0
388 1 2.7106067172136976 13.580085627931151 10.929365537769783 0 0 0
540 1 8.10092787002206 13.59379826472149 16.182889719349735 0 0 0
392 1 4.154019689788174 14.828646107242363 12.306581624417866 0 0 0
396 1 8.079344488366706 13.631417250394103 10.747810374430289 0 0 0
1169 1 10.760373611567386 16.156315873794703 10.860611150194487 0 0 0
400 1 9.369963354683277 14.959459147022901 12.157923282162807 0 0 0
404 1 13.608725171120943 13.66174991918474 10.764148270980483 0 0 0
408 1 14.894995270556409 15.026836972295369 12.125696485733702 0 0 0
412 1 18.868029012124154 13.594706893146261 10.733662662623827 0 0 0
416 1 20.36990296818612 14.82623325356704 12.1969371908845 0 0 0
420 1 24.48039205101651 13.560349405334309 10.869958411876649 0 0 0
424 1 25.89179482134468 14.895973012957448 12.349105524456391 0 0 0
428 1 29.878465689696625 13.487684004669607 10.883975540399367 0 0 0
432 1 31.2628300758758 14.911699929918319 12.109396198893014 0 0 0
290 1 0.006308347056942615 2.6840865379247183 13.659848184205773 0 0 0
295 1 4.012386472068589 1.2720892451923866 14.981669303080698 0 0 0
298 1 5.35696556647426 2.690993187940332 13.632737266481307 0 0 0
441 1 5.477279128476034 -0.020618554772267903 16.24192053429368 0 0 0
299 1 8.123249654087719 0.01696589886119393 13.491515425980802 0 0 0
169 1 16.389978428760912 0.04662039578583688 5.4748269629993 0 0 0
303 1 9.464502705877132 1.4290501535442235 14.9074089464861 0 0 0
306 1 10.839515784321225 2.7063988659340183 13.387840476076278 0 0 0
307 1 13.53423791382006 -0.00209687819421975 13.576689932240381 0 0 0
311 1 14.955267477783401 1.3797988812841044 14.829716032256675 0 0 0
314 1 16.23298856414035 2.690221244705503 13.425471089495424 0 0 0
319 1 20.37382220820031 1.3665022396143125 14.940782017122753 0 0 0
460 1 18.96348466480994 2.701821046134321 16.254153182685773 0 0 0
322 1 21.749969349488225 2.674525571134541 13.621825572888344 0 0 0
398 1 6.788432490447706 14.9466869304965 14.930748740115785 0 0 0
327 1 25.807777917420918 1.3480879236331724 14.94801447605437 0 0 0
161 1 10.765008098339315 0.09909331202074867 5.409914635956399 0 0 0
330 1 27.051244756690632 2.7530861108090625 13.641718522754514 0 0 0
335 1 31.2337906523107 1.3676205670134114 14.982484958278425 0 0 0
1041 1 21.666481853459544 16.18998806688801 5.3304818978610236 0 0 0
294 1 1.51090985676545 4.064905729430419 15.013415770311031 0 0 0
339 1 2.7393068252542068 5.408763585598444 13.60846853176622 0 0 0
1025 1 10.84191877148166 16.234546863380654 5.3575763592229 0 0 0
302 1 6.693183905499904 4.112858172383532 15.004914120177416 0 0 0
347 1 8.212421679250708 5.286511459205506 13.626276253302406 0 0 0
497 1 10.935608797037476 5.436168575355914 16.253859942296575 0 0 0
310 1 12.183716319407436 4.124764777358825 14.763712866682008 0 0 0
355 1 13.642471363876833 5.56186922424301 13.541959776705168 0 0 0
318 1 17.513959470954873 4.049491593381073 14.877137360262173 0 0 0
27 1 19.057154330775205 0.0017752239296768835 2.647990527808083 0 0 0
363 1 18.99280229241616 5.355068500480639 13.581385359740777 0 0 0
326 1 23.168421182556138 4.012205393657498 14.859379797107904 0 0 0
513 1 21.809407115514286 5.459161791613093 16.16298643313285 0 0 0
371 1 24.41646256655863 5.345687476589386 13.418394940554855 0 0 0
334 1 28.442184950022273 4.0062405626915805 15.026039458702709 0 0 0
379 1 29.88782409604305 5.333836446712126 13.629254925117792 0 0 0
338 1 0.029014557537302556 8.227543569534884 13.503415235083649 0 0 0
342 1 1.2991212106921377 9.617688054204848 14.85135115754404 0 0 0
484 1 2.7878120379193496 8.289481132061313 16.186031754266242 0 0 0
343 1 4.086834994861409 6.860611565898488 14.90433403094925 0 0 0
346 1 5.498734625861483 8.125076006800311 13.449574945819068 0 0 0
350 1 6.882789441173344 9.44890233312352 14.821614032972478 0 0 0
19 1 13.544324267129024 0.11476012800657998 2.6979276346701835 0 0 0
351 1 9.471475528354194 6.699320599641235 14.919871840329426 0 0 0
354 1 10.781295628529847 8.142042858586194 13.523056926216753 0 0 0
358 1 12.159246770670494 9.472677756330198 14.893415260960136 0 0 0
500 1 13.497845531349194 8.156047274164417 16.23770072381813 0 0 0
359 1 14.988408795816808 6.806418917252438 14.950461317867806 0 0 0
362 1 16.315888094635813 8.201512288573033 13.451512819255507 0 0 0
366 1 17.639327451200238 9.447249278550455 14.946588421868686 0 0 0
367 1 20.44241186510169 6.747590114357009 14.842140440976243 0 0 0
370 1 21.8022443348783 8.12911777084733 13.392510723523687 0 0 0
374 1 23.13834258719534 9.467130497766354 14.81132217830157 0 0 0
375 1 25.8997113034544 6.713440745093914 14.92123184685501 0 0 0
516 1 24.416457556979147 8.132647484178573 16.23603833024902 0 0 0
378 1 27.253340871539564 8.107812041326387 13.548478358487678 0 0 0
382 1 28.555229416836664 9.33425745402605 14.957176583461548 0 0 0
383 1 31.383093640502537 6.705062186737113 14.848969501691494 0 0 0
387 1 2.7629969645435937 10.87983302344144 13.676046373819638 0 0 0
391 1 4.244251683953952 12.283731754925782 15.075224365679231 0 0 0
395 1 8.275699584414603 10.807998036620274 13.47341747314506 0 0 0
399 1 9.544569673393324 12.201037367809489 14.93887480278398 0 0 0
403 1 13.481597666375253 10.889098767571195 13.58143375906756 0 0 0
407 1 14.824444477930687 12.177223286203967 14.855882863210269 0 0 0
553 1 16.17974942359696 10.7622325755727 16.25810202326048 0 0 0
415 1 20.19535281179073 12.180853727851096 14.889041950839646 0 0 0
411 1 19.041029034927682 10.816576718331953 13.535473353631568 0 0 0
561 1 21.69328404282516 10.757466914784375 16.241678023724635 0 0 0
423 1 25.790638179975463 12.121867960781096 14.883999854909439 0 0 0
419 1 24.50646907300017 10.777226003297862 13.589766226451504 0 0 0
431 1 31.20307222967733 12.206050518286206 15.06983299682835 0 0 0
427 1 29.938980116423163 10.817557024436928 13.632710394857181 0 0 0
390 1 1.4108187342929355 14.863101420043916 14.876097438601096 0 0 0
394 1 5.597218873263171 13.504134620552831 13.661133727839314 0 0 0
867 1 2.758625872698009 16.26046170944091 2.5867328510160257 0 0 0
11 1 7.963458995924556 0.04589381951709015 2.7454018034031695 0 0 0
331 1 29.93161252780165 0.013112445312209786 13.665736726689197 0 0 0
875 1 8.011465042741573 16.192609201539593 2.608435062612477 0 0 0
881 1 10.775684537675561 16.273261025317154 0.05185778902206133 0 0 0
140 1 29.778519945088217 13.54422900248532 0.06067259571643291 0 0 0
905 1 27.028997838204806 16.238426293430607 -0.012173468386720288 0 0 0
452 1 13.525454723922794 2.8368289811394813 16.080915094330607 0 0 0
481 1 0.07944347039249067 5.382652681695114 16.279822271221914 0 0 0
508 1 19.05740949984422 8.049700710271084 16.272244630593168 0 0 0
524 1 30.03818775979582 7.994885824176929 16.248810940213104 0 0 0
537 1 5.589302756852165 10.810413280148573 16.205850254608293 0 0 0
124 1 18.880256753914775 13.54496302302823 0.03669270758358323 0 0 0
1 1 32.52658749602954 0.022522688373432718 0.03726599023313071 -1 0 0
4 1 2.7544511272124037 2.6044042333542885 0.09744262044871022 0 0 0
57 1 5.40857553534559 5.430943070564172 0.08272970947898983 0 0 0
65 1 10.726675546996187 5.507295383026363 0.0750999061700881 0 0 0
52 1 2.7247812131542566 8.015092093010692 0.11846636881701045 0 0 0
68 1 13.544634897662736 8.109985877415394 -0.0009343692826533356 0 0 0
105 1 5.375228554334221 10.916670133406756 0.013566103231035243 0 0 0
137 1 27.130510150107273 10.813656940688146 0.13896549939966008 0 0 0
435 1 2.722008358224244 0.004618158988661828 18.96779244499375 0 0 0
436 1 2.8044005981045723 2.7649117435894963 16.324985554056475 0 0 0
437 1 1.4060533627070564 1.4380068449784098 17.668275843714397 0 0 0
442 1 5.383925255866313 2.730596245096943 18.960544893016774 0 0 0