LAMMPS data file via write_data, version 19 Nov 2024, timestep = 60100, units = metal

1728 atoms
1 atom types

-0.029944037992262196 32.609944037992236 xlo xhi
-0.029944037992262196 32.609944037992236 ylo yhi
-0.029944037992262196 32.609944037992236 zlo zhi

Atom Type Labels

1 Si

Masses

1 28.0855

Atoms # atomic

5 1 1.2868336017058466 1.3210912038151092 1.3442399895645363 0 0 0
572 1 29.833036159582655 13.500377063446146 16.239244703699768 0 0 0
10 1 5.431709059058762 2.7007115186414423 2.785604335492958 0 0 0
13 1 6.741491037857606 1.369039812534238 1.332420208630588 0 0 0
18 1 10.907481193320397 2.7556161481399934 2.5285962916382405 0 0 0
21 1 12.1974527545365 1.3860881496537314 1.172423801867996 0 0 0
26 1 16.253170039254464 2.7584736863217683 2.731415099174987 0 0 0
29 1 17.639691544211583 1.343380322208017 1.3049804081977594 0 0 0
1337 1 27.131582249036498 16.194867173868445 16.23578749010551 0 0 0
34 1 21.57690550518476 2.7406758575330112 2.589216795357323 0 0 0
37 1 23.087173343660773 1.4416340948502113 1.3527479641601654 0 0 0
35 1 24.471079261603755 -0.012996507328431448 2.6599672310641695 0 0 0
42 1 27.202754668833446 2.6677429152104 2.528872072634491 0 0 0
45 1 28.60837139253655 1.216294710481548 1.3394823417378752 0 0 0
2 1 32.58540037910121 2.6701950955655676 2.656837324851565 -1 0 0
43 1 29.948351500922 0.04708986467794202 2.9120061771993413 0 0 0
44 1 29.957765083282666 2.6893171998399 -0.024494066687957776 0 0 0
1187 1 24.457033439332886 16.180723600057036 13.656763557129192 0 0 0
51 1 2.6823097591936618 5.348679049242374 2.750589708543819 0 0 0
8 1 4.06733945692984 4.001213249917588 1.3009018749530488 0 0 0
59 1 8.100800032848051 5.514951868070829 2.728238344523594 0 0 0
16 1 9.462800645523936 4.146000599526573 1.2733929521831449 0 0 0
67 1 13.562720286969522 5.451561176379615 2.708667040728952 0 0 0
24 1 14.86277879321822 3.991398169167079 1.2895343404876856 0 0 0
1179 1 18.940605203389424 16.175800892184498 13.418216245954296 0 0 0
32 1 20.2582312590987 4.138351710256249 1.2362989291835378 0 0 0
75 1 18.856474430884003 5.419366372750896 2.66360191658097 0 0 0
40 1 25.897640502656113 4.029067000276455 1.217372331763324 0 0 0
83 1 24.5011395413334 5.369166171874369 2.702780895837714 0 0 0
1171 1 13.545595265365282 16.242436987746146 13.624855833078195 0 0 0
48 1 31.187017722171166 4.133327143741958 1.223040485902567 0 0 0
91 1 29.88338055502998 5.451221915613055 2.5331111221890934 0 0 0
50 1 32.51899957488299 8.0727875689063 2.724975005193919 -1 0 0
53 1 1.4036714604092757 6.736351862009938 1.4190031551077542 0 0 0
56 1 3.9590465653100204 9.518125653965845 1.41278804671891 0 0 0
58 1 5.3026542394770475 8.216758673711238 2.7915493669925757 0 0 0
61 1 6.619282401206299 6.910961856677565 1.4679180368860965 0 0 0
64 1 9.491042030729346 9.472854934278983 1.3701610748879904 0 0 0
66 1 10.87496967801581 8.222413738122224 2.852515595023806 0 0 0
69 1 12.235000168965104 6.829872308716127 1.3596586199904448 0 0 0
72 1 14.972736724919924 9.522590854636372 1.2219956568659525 0 0 0
74 1 16.318326280507858 8.128039426939417 2.660318910236376 0 0 0
77 1 17.728983391156255 6.693468133356471 1.2434795921768043 0 0 0
80 1 20.40711364575366 9.37318382551615 1.4148147611795518 0 0 0
82 1 21.674148774300715 8.029547912615579 2.8400139369530004 0 0 0
85 1 23.088246912780782 6.746721527989559 1.3135578050657726 0 0 0
88 1 25.587685049861296 9.378645821783648 1.2757359713314487 0 0 0
90 1 27.085088155975615 8.137538386503111 2.715807796274993 0 0 0
93 1 28.426402409161337 6.8374838805719795 1.252746438374801 0 0 0
1155 1 2.8430928360505923 16.20617644058986 13.512563343341666 0 0 0
96 1 31.227155118377322 9.502846034455242 1.4196139374640084 0 0 0
99 1 2.664910516359074 10.85944678996867 2.653274830389057 0 0 0
101 1 1.2718120394141204 12.274361380556135 1.2764240993379554 0 0 0
107 1 8.18581255356004 10.889219349532816 2.7265961986909035 0 0 0
109 1 6.853791583374186 12.233254061227667 1.4472844969735217 0 0 0
291 1 2.695639660899593 0.08583997131642462 13.468747306140054 0 0 0
115 1 13.538464475771324 10.842720037883836 2.604062052845114 0 0 0
117 1 12.111209686868497 12.184347860148884 1.2483124366824214 0 0 0
289 1 32.59035711232333 -0.0006389813025649005 10.805610287735696 -1 0 0
125 1 17.66113418408186 12.216822633335216 1.4698151655058904 0 0 0
123 1 19.059884953140738 10.895026878630564 2.7448837613899055 0 0 0
129 1 21.782270775271726 10.887353057414009 0.12394414935705175 0 0 0
133 1 23.10724917642424 12.279667133424834 1.3359515956375723 0 0 0
131 1 24.40521199169296 10.779387246530458 2.618751158829224 0 0 0
141 1 28.505235433780314 12.156653884745461 1.506613856522791 0 0 0
97 1 32.521294733757415 10.750365305588687 -0.014582317158363084 -1 0 0
139 1 29.950358138824097 10.84575297941805 2.916368046090433 0 0 0
1161 1 5.401395930370849 16.223886021680997 10.720340166124888 0 0 0
104 1 4.061231502249282 14.86594231963783 1.3291669997416597 0 0 0
106 1 5.304368918798888 13.513461774513098 2.7274665464307755 0 0 0
171 1 18.98024766828701 -0.009706905216567918 8.107695761323718 0 0 0
112 1 9.461427911266 14.918295964427456 1.3837721611490839 0 0 0
114 1 10.76631327382186 13.534988659148462 2.740736881450023 0 0 0
883 1 13.564301702106205 16.263234786118666 2.6878032475634566 0 0 0
155 1 8.115903004224084 -0.0006437236010228276 8.081748935792799 0 0 0
120 1 14.94283740197012 14.952516898555556 1.2290061241507286 0 0 0
122 1 16.357459858009438 13.707735067745293 2.635514187659638 0 0 0
1195 1 29.832721188157535 16.20440315680118 13.503967130773411 0 0 0
128 1 20.244617775877952 14.987382766660133 1.2346639048481065 0 0 0
147 1 2.8412049166148168 -0.02731292943644803 8.23236626893085 0 0 0
130 1 21.69833574897128 13.666203744467813 2.5305377895104013 0 0 0
426 1 27.10015219918924 13.465881489712716 13.736410371774383 0 0 0
136 1 25.748616554681632 14.902009959177159 1.3256872739248353 0 0 0
1027 1 13.519901410182017 16.281937799845256 7.96627266672731 0 0 0
138 1 27.10212161197533 13.5302496380668 2.6522089596222123 0 0 0
430 1 28.512443902643547 14.873135857481431 14.937561767271589 0 0 0
98 1 0.01872831855003909 13.620697871352753 2.6511322087916684 0 0 0
144 1 31.16719542885913 14.909154483256158 1.3448407015913708 0 0 0
148 1 2.8128385143149397 2.664693393663281 5.44170518907046 0 0 0
7 1 4.115075231264394 1.230037422840089 4.099457053464175 0 0 0
156 1 8.163281735310202 2.815916705987404 5.361041374722782 0 0 0
15 1 9.569629735505853 1.3899675506748244 4.027814468732197 0 0 0
164 1 13.52705104537357 2.6689479004555556 5.416670004642943 0 0 0
23 1 14.939024463829362 1.3652029896497284 4.073068794661833 0 0 0
169 1 16.33669961272085 0.0031568935421883945 5.419142729250713 0 0 0
31 1 20.324546918354486 1.372371057136254 4.099223263076111 0 0 0
172 1 18.9541795167805 2.6731863321934553 5.41385727218172 0 0 0
564 1 24.173334070649812 13.571598953398937 16.131423594264692 0 0 0
39 1 25.839290684413662 1.375838997399235 4.01028808060614 0 0 0
180 1 24.391407766640633 2.5773681071024 5.372848825055675 0 0 0
185 1 27.23185310132079 -0.012391902720541881 5.379981877262316 0 0 0
47 1 31.404024834987624 1.4012722783939258 4.12901173501386 0 0 0
188 1 29.85846797876192 2.6614463075291503 5.3063270636350275 0 0 0
6 1 1.3127409681624507 3.9589434540435766 4.082550952468498 0 0 0
193 1 0.021820296012535732 5.361147794614482 5.495063670808576 0 0 0
201 1 5.382530355202183 5.512541605744498 5.429959935885165 0 0 0
14 1 6.795126849049028 4.162759420152526 4.09979367546842 0 0 0
209 1 10.874311519093572 5.3814863956406045 5.343843615680929 0 0 0
22 1 12.276349591852796 3.990557902264561 4.037551218726708 0 0 0
30 1 17.552620798198323 4.012631448908981 4.201410816674534 0 0 0
217 1 16.272199837908744 5.429114546672775 5.397469783484504 0 0 0
38 1 22.990864818555902 4.039698858914439 4.007862571068843 0 0 0
225 1 21.704557524226182 5.364227205377037 5.407969581926074 0 0 0
46 1 28.610275413377465 4.11247094280689 3.831721707646591 0 0 0
233 1 27.260815958285104 5.283046192818135 5.351782895646766 0 0 0
54 1 1.3258383140695076 9.431556877634456 4.033415707556341 0 0 0
196 1 2.6915337431729616 8.085841813275772 5.503679699582969 0 0 0
55 1 3.990238824168388 6.846405674269557 4.0308698566358885 0 0 0
62 1 6.831631594239513 9.581546437862437 4.031300860198227 0 0 0
204 1 8.170749655796776 8.270035409919025 5.2926350031720455 0 0 0
63 1 9.526822829456002 6.851797663985655 4.075693726555694 0 0 0
70 1 12.324422418914018 9.536777773085008 4.098835492788031 0 0 0
212 1 13.691289635491126 8.173617684421115 5.46103784490696 0 0 0
71 1 14.975301938380905 6.753067240719561 4.083292324844562 0 0 0
78 1 17.707333311290608 9.535408806074912 4.060949501002078 0 0 0
79 1 20.314412156984957 6.743263591268061 4.090117354122079 0 0 0
220 1 19.02990934896899 8.130618468698717 5.454276254234541 0 0 0
86 1 23.033845297322294 9.49772816371824 4.146531539642102 0 0 0
87 1 25.903042146437915 6.751095957379381 4.110314387289135 0 0 0
228 1 24.555275441023166 8.077037820106673 5.4404452877655975 0 0 0
94 1 28.418269681904324 9.442066977167352 4.102332077039823 0 0 0
95 1 31.19559219655968 6.666481069444365 4.048294341477433 0 0 0
236 1 29.886570917763898 8.084980809748462 5.441039558177068 0 0 0
241 1 0.06869318383633621 10.845101863800597 5.390206526144889 0 0 0
103 1 3.996091725139342 12.176055257901883 4.094339816553985 0 0 0
249 1 5.475009234767387 11.018357673340033 5.365403475370537 0 0 0
111 1 9.444315475234113 12.212365728950251 4.130200350941676 0 0 0
257 1 10.922507486632261 10.83158018050459 5.478387393319162 0 0 0
119 1 15.023522514551447 12.324393634241822 3.9433456967745055 0 0 0
265 1 16.383179440508755 10.895450351665273 5.323204567411135 0 0 0
127 1 20.30730484450088 12.358047991887451 3.9626171372452403 0 0 0
273 1 21.75226297255448 10.986426796042613 5.411211827811236 0 0 0
135 1 25.751819880626265 12.111788346959898 4.022342740396811 0 0 0
281 1 27.15587850460385 10.876738201618378 5.433222382698449 0 0 0
143 1 31.323129352404496 12.303188789298218 4.177652003961231 0 0 0
102 1 1.357229687745979 15.016023231996853 4.0155174645729295 0 0 0
244 1 2.6841349018862073 13.636130589228268 5.511354010481419 0 0 0
418 1 21.56369888451548 13.444182410964808 13.449430150365858 0 0 0
110 1 6.707405903714357 14.869921549850831 3.980628578205851 0 0 0
252 1 8.071247200669895 13.5453864063227 5.455704265927033 0 0 0
118 1 12.146444248199701 14.87184256999181 4.110488260689457 0 0 0
260 1 13.635934954578433 13.484077459850198 5.326427054803084 0 0 0
422 1 22.88308655910323 14.896539660469983 14.722641027683498 0 0 0
126 1 17.557007630443323 15.112507858994807 3.952488211597504 0 0 0
268 1 19.05540375275738 13.802289327520805 5.267640328252557 0 0 0
134 1 23.239131648432586 14.833862017205849 3.9965239975355082 0 0 0
276 1 24.525360744884242 13.394636079526766 5.450615793640357 0 0 0
1049 1 27.195762728103833 16.217790230793696 5.50138803945585 0 0 0
142 1 28.50372513248659 14.937345114550823 3.9429714765620125 0 0 0
284 1 29.89755382559528 13.63277702387442 5.467388177867248 0 0 0
149 1 1.4029982563689862 1.2899380472309268 6.901053899282399 0 0 0
151 1 4.153750634945356 1.3724471262234488 9.389367599913312 0 0 0
154 1 5.449377401818782 2.7087444623330468 8.138614945992828 0 0 0
157 1 6.839929686306961 1.4606868973452938 6.682710132782329 0 0 0
159 1 9.388228917108878 1.380839227720119 9.530645559536602 0 0 0
162 1 10.783784194136132 2.6232162108984762 8.072840527127209 0 0 0
556 1 18.921834808461373 13.508606214690186 16.287330274035806 0 0 0
165 1 12.147122732765194 1.2422609690225987 6.745841921328908 0 0 0
167 1 14.862123246634326 1.298477698651058 9.459059578319792 0 0 0
170 1 16.200296205343637 2.8028324432177447 8.2318292182951 0 0 0
173 1 17.552695095651856 1.4446107862839148 6.930893453769 0 0 0
175 1 20.38180946201694 1.2920443613748236 9.471074822688832 0 0 0
178 1 21.740113854271122 2.7097745762515983 8.12649033595936 0 0 0
181 1 23.085409255852728 1.2827033477650105 6.783519997414795 0 0 0
183 1 25.84223148037693 1.3577920875621554 9.361166605031194 0 0 0
186 1 27.313661628750335 2.688395938345007 8.070869773906985 0 0 0
189 1 28.588936764430326 1.3613432101133442 6.676693945516614 0 0 0
146 1 32.57081142527606 2.6793415867759487 8.198613871207794 -1 0 0
1321 1 16.31388892865351 16.24531591006112 16.218399121563202 0 0 0
191 1 31.177985639008757 1.3810277241323883 9.52141052330802 0 0 0
150 1 1.2789633493134986 4.046420339942411 9.441232783510642 0 0 0
195 1 2.7514532558547797 5.354287092015567 8.132575043733121 0 0 0
152 1 4.084544732821042 3.989472215933756 6.799415651107034 0 0 0
158 1 6.831760181140206 4.1402326295802405 9.532108423595457 0 0 0
203 1 8.088261397757051 5.510869373980624 7.995788639285187 0 0 0
160 1 9.507031280571319 4.119819183033381 6.734005844788415 0 0 0
166 1 12.122850296399884 4.161176498015805 9.380801482567596 0 0 0
211 1 13.618989054549987 5.509555209427002 8.132369020521027 0 0 0
168 1 14.867791873886523 4.1262058323663 6.850947892811792 0 0 0
174 1 17.63981505782678 4.082372741042506 9.477778688913675 0 0 0
176 1 20.343686731268843 3.9922900074302334 6.676103767130687 0 0 0
219 1 19.048785680967924 5.266843898569991 8.049503318791528 0 0 0
182 1 23.156957853987848 3.963450889446346 9.567913066374906 0 0 0
184 1 25.883801528352187 3.918172452067449 6.659687640433822 0 0 0
227 1 24.5502843746003 5.259019233104881 8.197834581633781 0 0 0
190 1 28.55907114701847 4.049111192485342 9.568455891697369 0 0 0
192 1 31.200728264809506 4.047132167576577 6.7601275787316775 0 0 0
235 1 29.824330356813153 5.4546128334729325 8.145797985721437 0 0 0
197 1 1.3339583708242224 6.740712456159083 6.852177940861157 0 0 0
198 1 1.327016146531619 9.388529000404482 9.539151220867865 0 0 0
199 1 4.089733008067403 6.67107995647135 9.428074621734618 0 0 0
200 1 4.0653525391069145 9.58529821531375 6.731637341251984 0 0 0
202 1 5.392011431525406 8.241592905650116 8.036151130878748 0 0 0
205 1 6.790659069085188 6.904968563239872 6.689272157295209 0 0 0
206 1 6.886103803425369 9.367773906061881 9.51630310663971 0 0 0
207 1 9.517678555094237 6.808589423087578 9.445888705076033 0 0 0
208 1 9.464527681224135 9.577598864289248 6.845041035159145 0 0 0
210 1 10.840291025527677 8.173474824537761 8.113564293130015 0 0 0
213 1 12.176198030561862 6.834535614612453 6.766327770285065 0 0 0
214 1 12.130942037398755 9.555456389368315 9.406884649397595 0 0 0
215 1 14.852135132375487 6.904348783165421 9.523678831610015 0 0 0
216 1 15.11471163733977 9.511314649724897 6.719807337707405 0 0 0
218 1 16.468645767371807 8.107108405859806 8.156954847670303 0 0 0
221 1 17.71121710256967 6.6835563865575285 6.684937497023584 0 0 0
222 1 17.829148762715352 9.412145611537145 9.480058666685512 0 0 0
223 1 20.433954111824615 6.542188523110018 9.354504957727707 0 0 0
224 1 20.28577828816289 9.50746821989732 6.75702652754508 0 0 0
226 1 21.71816775526793 8.096429705233854 8.088291982825353 0 0 0
229 1 23.16140279977799 6.705102564837219 6.695903329472908 0 0 0
230 1 23.02781581253653 9.531132327160257 9.520008882988671 0 0 0
231 1 25.946420635945564 6.749618705691271 9.422130883851056 0 0 0
232 1 25.829468419246727 9.407370524875994 6.817256798734787 0 0 0
234 1 27.20486560447922 8.135884434793827 8.108067042048011 0 0 0
237 1 28.551170323377498 6.714375817189148 6.661150718279861 0 0 0
238 1 28.38502068530912 9.539899070234947 9.482312659833182 0 0 0
194 1 32.60111189051828 8.156604514267961 8.174115158161253 -1 0 0
239 1 31.24072476126211 6.8005163271586335 9.545905639769895 0 0 0
240 1 31.269592308847898 9.49025572680532 6.740747039436854 0 0 0
243 1 2.64475827169411 10.829806746512594 8.121600605885002 0 0 0
245 1 1.3276300247479924 12.165678966760712 6.802363680696571 0 0 0
247 1 4.11522598953254 12.068764118671506 9.638392635537961 0 0 0
251 1 8.076967336006415 10.867935458469434 8.095103216997144 0 0 0
253 1 6.688235477077476 12.247065278776978 6.854607934856733 0 0 0
255 1 9.409387524503392 12.258073427474567 9.341078837880003 0 0 0
259 1 13.607073628605805 10.831073078438514 8.079872401755132 0 0 0
261 1 12.228470977996476 12.25921703218592 6.739157113373512 0 0 0
263 1 14.914040492776438 12.194912033287185 9.452541382076202 0 0 0
269 1 17.74797246928029 12.338355638415027 6.651144631595104 0 0 0
267 1 18.976027634161188 10.892535643485202 8.078465216570333 0 0 0
271 1 20.28874975537857 12.250422412125433 9.462283172802483 0 0 0
277 1 23.096412711964447 12.159700074575797 6.8972616787650916 0 0 0
275 1 24.48924931974175 10.844382708611718 8.22062077641782 0 0 0
279 1 25.87183123678471 12.246778538347417 9.487638797535178 0 0 0
285 1 28.578734029675196 12.237004625359193 6.704489408828081 0 0 0
283 1 29.87929934390503 10.891273262293272 8.073126294868459 0 0 0
287 1 31.24571314471785 12.178096423365572 9.416417987382621 0 0 0
242 1 -0.01352685617556355 13.590644157775808 8.06093274091775 0 0 0
246 1 1.461460359821209 14.882217823006354 9.327739048772225 0 0 0
248 1 4.08184540060821 15.057136875291718 6.82538114325397 0 0 0
250 1 5.355573145499783 13.577990896653162 8.189320626766841 0 0 0
254 1 6.89297682447897 15.006610518365667 9.428331054208122 0 0 0
256 1 9.581113621100648 14.89718551416881 6.753562047518922 0 0 0
258 1 10.98172405178049 13.646744293745428 8.201408261811894 0 0 0
262 1 12.163737011693291 15.131697397753127 9.542426763334117 0 0 0
264 1 15.079735729283593 14.883085310648767 6.671416496745947 0 0 0
266 1 16.364457870276855 13.540725668332026 8.13569563227632 0 0 0
270 1 17.538416990596037 14.95300603321571 9.415991782303559 0 0 0
1035 1 19.096311813135085 16.250091064978463 8.10079795859653 0 0 0
272 1 20.406220332697284 14.950137536953394 6.720381331267566 0 0 0
274 1 21.706976018850558 13.601832790714715 8.101750224823697 0 0 0
278 1 23.02312818770351 14.99690660590719 9.442899082999562 0 0 0
410 1 16.23018390771771 13.519632629678606 13.443989204786067 0 0 0
280 1 25.663640539713285 14.975235911646555 6.741612362931153 0 0 0
282 1 27.12443080091737 13.499357534552486 8.068139899705987 0 0 0
286 1 28.455915786830282 14.836966407961343 9.52042898570506 0 0 0
1051 1 29.828607659135425 16.255161968319435 8.253658447835393 0 0 0
288 1 31.312029889955898 15.095927677412448 6.768458967016536 0 0 0
292 1 2.728269836369828 2.7889394468215585 10.76486103967176 0 0 0
293 1 1.2800188338327132 1.455655378247934 12.106564344034174 0 0 0
297 1 5.538753800631808 -7.527904155915015e-05 10.827068336747875 0 0 0
300 1 8.02907145615786 2.7742113029405293 10.88970722824539 0 0 0
301 1 6.835221416537041 1.4860196795155005 12.344148537649804 0 0 0
308 1 13.506940695214634 2.7407516499367395 10.814423941732382 0 0 0
309 1 12.168334343484814 1.3554773759703376 12.205112021929027 0 0 0
313 1 16.237213278802923 -0.018978384281797288 10.882349601294575 0 0 0
317 1 17.651519831805754 1.20120787405127 12.168819290159997 0 0 0
316 1 18.95371420209726 2.62474886259653 10.91942000205928 0 0 0
414 1 17.63935335313311 14.835362124117006 14.795231845217753 0 0 0
325 1 22.99508064711146 1.2299416936603196 12.313782358166128 0 0 0
324 1 24.432401590594722 2.5025216918338344 10.85994574378577 0 0 0
333 1 28.476693025062087 1.4452608689278859 12.183798420034874 0 0 0
332 1 29.919481322951338 2.74466148928755 10.91589255727075 0 0 0
296 1 4.149934908906211 4.1236368468263525 12.256316123760067 0 0 0
345 1 5.449933125875961 5.421189280600518 10.922629105289689 0 0 0
304 1 9.508357575599426 4.064376175397687 12.19604256379987 0 0 0
353 1 10.854359732489067 5.505686335433504 10.755614919097477 0 0 0
312 1 14.887399847671032 4.060889958937548 12.111298394905605 0 0 0
361 1 16.2924539307649 5.465043082339132 10.847934190900373 0 0 0
320 1 20.318939758233952 3.97727646741108 12.173350301844032 0 0 0
369 1 21.768634186109168 5.271212328719358 10.836683226902503 0 0 0
328 1 25.749008316913322 4.00883605380341 12.124369961677528 0 0 0
377 1 27.165622907010466 5.397972112504048 10.860001158888846 0 0 0
337 1 32.58332242542616 5.439308525637154 10.893891909381209 -1 0 0
336 1 31.306338001290875 4.092067506702944 12.378925391519246 0 0 0
340 1 2.689533793369232 8.047953767876276 10.787759755687212 0 0 0
341 1 1.4625260800875821 6.765058779375529 12.15397616846688 0 0 0
344 1 4.1057034970304445 9.408501760809495 12.135985986987517 0 0 0
348 1 8.180522571079376 8.047951898009014 10.800731061212142 0 0 0
349 1 6.775248769686021 6.694270749667956 12.187351638928018 0 0 0
352 1 9.518379860921545 9.52976440959859 12.14044136088636 0 0 0
356 1 13.4560814562463 8.209444624091493 10.802183003216001 0 0 0
357 1 12.225279745394879 6.847291317227942 12.131460748265539 0 0 0
360 1 14.805053803786898 9.488401569152744 12.155127062588123 0 0 0
365 1 17.745303462632588 6.689177633599224 12.192074691009173 0 0 0
364 1 19.162027249569476 7.971368743963149 10.787011604874742 0 0 0
368 1 20.40545316772453 9.547177297693496 12.200004129127699 0 0 0
373 1 23.056942387377877 6.646627130375891 12.195078318196828 0 0 0
372 1 24.429460368434082 8.085130321083712 10.775336416376682 0 0 0
376 1 25.82799691787196 9.456132902495652 12.195528122034307 0 0 0
381 1 28.493187701455145 6.762979676400143 12.20209849061926 0 0 0
380 1 29.8815103974125 8.206433864818916 10.862436833457517 0 0 0
384 1 31.215566880815036 9.593916216589777 12.228807223494456 0 0 0
385 1 -0.011284915133962474 10.973206654257714 10.822252995855232 0 0 0
389 1 1.43975488703523 12.21431134317816 12.259342239173995 0 0 0
393 1 5.546306130851214 10.64296294485423 10.797981995925502 0 0 0
397 1 6.767632503337198 12.133760565379843 12.152062408088861 0 0 0
401 1 10.832132701082 10.861502283242372 10.757870100800776 0 0 0
405 1 12.166791981449672 12.289610276817179 12.080842114995326 0 0 0
409 1 16.335836739287405 10.800299057469179 10.76617708546706 0 0 0
413 1 17.69975893804564 12.229805061501779 12.155620362651925 0 0 0
417 1 21.697433736556246 10.959224245294305 10.810196195233264 0 0 0
421 1 23.108335295598305 12.348012421708528 12.273411296158178 0 0 0
425 1 27.143886238852566 10.863140880217623 10.961293729549148 0 0 0
429 1 28.52576007701395 12.155770002855341 12.365471336383717 0 0 0
1153 1 0.005521362364515285 16.220184129625707 10.689584281842555 0 0 0
388 1 2.8010936764066163 13.601435360396023 10.875190756096972 0 0 0
392 1 4.242666954309684 14.869512828032972 12.080419149747604 0 0 0
396 1 8.02577414623987 13.456423013954865 10.670623488801565 0 0 0
400 1 9.259087524024016 14.918280865241686 12.191147183758183 0 0 0
404 1 13.552257521060866 13.617005880781877 10.707887487176091 0 0 0
408 1 14.926982658850097 14.984507198438335 12.178465716598486 0 0 0
412 1 18.943449830990875 13.57380948796473 10.824475081395354 0 0 0
416 1 20.355590827785427 14.87202138073939 12.083486156879006 0 0 0
1185 1 21.739161442303303 16.27601321570451 10.934252527388194 0 0 0
420 1 24.3761422220122 13.620507041577245 10.67024559144784 0 0 0
424 1 25.663393618834405 14.776025328719527 12.23049406210508 0 0 0
1193 1 27.12967587194197 16.214953012522383 10.881806501194834 0 0 0
428 1 29.846713087780028 13.494248309988976 10.89627302851239 0 0 0
432 1 31.251543014299628 14.888072993925176 12.122527358791798 0 0 0
295 1 4.047557618424704 1.2707108967983423 15.021691252348191 0 0 0
298 1 5.4309384141522425 2.720635454832693 13.763041882399321 0 0 0
153 1 5.376243114440418 0.027787674460469702 5.5224899095578115 0 0 0
299 1 8.207412067057062 -0.002158525608427721 13.57496806274901 0 0 0
315 1 19.036022710709066 -0.024782906665762994 13.562483031543296 0 0 0
303 1 9.421807974975929 1.4358891237459697 14.959099909736707 0 0 0
306 1 10.80854337186059 2.7144697145356758 13.547877600880192 0 0 0
307 1 13.452457709791437 -0.010266768236007182 13.467486361367088 0 0 0
311 1 14.832387537688666 1.3462335636807028 14.784679032971404 0 0 0
314 1 16.265362502498995 2.704308853358543 13.377847796611176 0 0 0
319 1 20.39638481987231 1.311957814764526 14.911487523068061 0 0 0
460 1 19.035530242211514 2.7281896567493007 16.221522198215926 0 0 0
322 1 21.721904824417507 2.6417549506558946 13.435774837144029 0 0 0
406 1 12.20556925136092 14.833331036641589 14.978168969816338 0 0 0
327 1 25.800888374796916 1.2482886488210665 14.837599922171162 0 0 0
468 1 24.50000489531282 2.592496872594198 16.196011922979615 0 0 0
330 1 27.15826092219738 2.7358874537341418 13.522012649722642 0 0 0
290 1 0.09845924117248472 2.7696761075098326 13.63251532037511 0 0 0
335 1 31.36605590244346 1.3513692814374958 14.96716198715925 0 0 0
1041 1 21.76987993944795 16.2021392465656 5.265982865222256 0 0 0
294 1 1.4760298763367536 4.049805283645181 14.946337196386413 0 0 0
339 1 2.7616939664071514 5.557732469938046 13.620581407512963 0 0 0
302 1 6.816607175250718 4.097377258775058 14.946248619033026 0 0 0
347 1 8.073157470944505 5.440971891290029 13.461640244326665 0 0 0
310 1 12.167999437660802 4.214786490377345 14.77571881132504 0 0 0
355 1 13.60542503275176 5.530348427742244 13.434836653393855 0 0 0
318 1 17.64074058021652 3.9778488424080547 14.816861164469234 0 0 0
505 1 16.30288496706829 5.384286004290949 16.20068243321236 0 0 0
363 1 19.005879579666875 5.330697927392066 13.539659370805136 0 0 0
326 1 23.099088155631314 4.054733530434195 14.857084819326623 0 0 0
41 1 27.129968774350235 -0.028282313264547554 0.0479077955511968 0 0 0
371 1 24.474475586730915 5.454828087980067 13.547811268681299 0 0 0
334 1 28.567372101182762 4.08576434203065 14.909716286339311 0 0 0
379 1 29.965485867526525 5.597176279898283 13.62457438638805 0 0 0
342 1 1.3038505181361941 9.479850835489882 14.95932541063137 0 0 0
343 1 4.237982313982655 6.8212706356317065 14.888127662844111 0 0 0
346 1 5.585409878784617 8.145376883202738 13.523903527156435 0 0 0
350 1 6.894945950951996 9.471949022645536 14.924556359990673 0 0 0
492 1 8.22289985964223 8.116304382518635 16.199366843941792 0 0 0
351 1 9.497013230790142 6.82585465972584 14.781188723796014 0 0 0
354 1 10.882443057751624 8.183534892871794 13.471296238575649 0 0 0
358 1 12.076237351830201 9.435769759547595 14.952308392194892 0 0 0
359 1 14.931764532260372 6.929360420223394 14.80278000803214 0 0 0
362 1 16.345306968991775 8.090169891276103 13.48405238944898 0 0 0
366 1 17.784584008135468 9.382177830668846 14.874025054230643 0 0 0
367 1 20.43950014100064 6.744108680388634 14.84154390122712 0 0 0
27 1 19.083688852550846 -0.010855200899854367 2.6830448113516696 0 0 0
370 1 21.706216664280404 8.134856634953612 13.549995874675481 0 0 0
374 1 23.11251510928235 9.532022612380672 14.934032393090773 0 0 0
375 1 25.750998167325736 6.722460135071231 14.88140556747349 0 0 0
516 1 24.490787364528572 8.131798469873072 16.276165175715693 0 0 0
378 1 27.124750211055627 8.083151152194455 13.574290617584426 0 0 0
382 1 28.575636798470356 9.4287484864998 14.980841368616158 0 0 0
338 1 -0.015033895543879794 8.122306427534586 13.48319842456003 0 0 0
383 1 31.40514665491467 6.838678843659428 14.90948940107242 0 0 0
387 1 2.7897796832329336 10.825302862173654 13.549953099996161 0 0 0
391 1 4.1596511788984225 12.141875218309517 14.838846796346834 0 0 0
395 1 8.145720342167944 10.800068510572398 13.466034504191581 0 0 0
399 1 9.43039236328861 12.192789271653544 14.948932299373201 0 0 0
19 1 13.399228697812813 0.0827052886648687 2.6342333273247847 0 0 0
403 1 13.530041510468513 10.862020442901567 13.469424017386736 0 0 0
407 1 14.96501001218845 12.148825572630487 14.842317336877457 0 0 0
553 1 16.300359615343375 10.809504407268019 16.181968701898054 0 0 0
415 1 20.25051749486724 12.187664044645437 14.957994117551578 0 0 0
411 1 18.998867732172055 10.826630807713892 13.560249424800306 0 0 0
561 1 21.65537608290491 10.931309997724666 16.26985398299178 0 0 0
423 1 25.711306525659865 12.172174351069339 15.000298025060262 0 0 0
419 1 24.42358058196469 10.85022396412539 13.481751937845214 0 0 0
431 1 31.30211424042112 12.294881879058378 14.90699757986033 0 0 0
427 1 29.81257058613454 10.872299008205413 13.708217426561994 0 0 0
390 1 1.4731668963982685 14.804695005461214 14.947322345689848 0 0 0
386 1 0.09328840279514046 13.624844711337957 13.541993307249502 0 0 0
394 1 5.528996751009962 13.60833388343566 13.499515333575852 0 0 0
398 1 6.829743243706998 14.899843146097224 14.946666113234306 0 0 0
11 1 8.09753110820054 -0.00569320121118011 2.7422087176964034 0 0 0
402 1 10.785250086591928 13.565657944800249 13.498115351296676 0 0 0
865 1 32.5452461816924 16.250512854488875 0.010779275169099906 -1 0 0
331 1 29.80602324175156 0.15600088388041655 13.626023472803041 0 0 0
140 1 29.73381096419623 13.5001902677037 -0.003479641710121939 0 0 0
449 1 10.752328883855217 0.11639279946305016 16.15427358204467 0 0 0
452 1 13.487592982080054 2.6656244125893176 16.144576790015726 0 0 0
457 1 16.14829808023623 0.06708262466294014 16.273212700042766 0 0 0
497 1 10.784045879563156 5.499800229140745 16.278282913150957 0 0 0
481 1 0.11687823906579098 5.434182242390957 16.254450001899656 0 0 0
484 1 2.8267540918331346 8.149626466656327 16.180559812562215 0 0 0
500 1 13.54818151302517 8.09901507704414 16.280058236072048 0 0 0
537 1 5.517152552390923 10.791044579480847 16.260174989478717 0 0 0
1297 1 0.010535511389122317 16.24258435009391 16.234708909156726 0 0 0
124 1 18.934559641239723 13.531900338309754 0.04045567756056556 0 0 0
57 1 5.370914314342238 5.472593451191996 0.03185631100490127 0 0 0
81 1 21.701747840368533 5.457006827073955 0.0410332696090947 0 0 0
52 1 2.6946004702754958 8.086099659603587 0.002901590937469223 0 0 0
105 1 5.421057493981157 10.877876880816927 0.1692555973204577 0 0 0
137 1 27.133096712259356 10.804124903560608 0.19342395133159584 0 0 0
433 1 0.1356320227803991 0.1371257866585438 16.25864339114656 0 0 0
1627 1 29.79705430131985 16.23444893141067 30.043911132016547 0 0 0
436 1 2.7367054562747444 2.6902551510447967 16.43056168876772 0 0 0
437 1 1.463643588239424 1.3121462872149714 17.903727768528036 0 0 0
442 1 5.48252610468113 2.66527182300205 18.956279914805698 0 0 0
818 1 32.51312184189489 13.461579188685564 29.87704284460221 -1 0 0
445 1 6.83277594630674 1.3061403415901371 17.662072097859294 0 0 0