LAMMPS data file via write_data, version 19 Nov 2024, timestep = 60000, units = metal

1728 atoms
1 atom types

-0.017372352039370043 32.5973723520391 xlo xhi
-0.017372352039370043 32.5973723520391 ylo yhi
-0.017372352039370043 32.5973723520391 zlo zhi

Atom Type Labels

1 Si

Masses

1 28.0855

Atoms # atomic

619 1 29.848015328508826 -0.009267615169378018 13.671349150034205 0 0 0
2 1 32.53568168340985 2.893338209748889 2.6901758111054725 -1 0 0
3 1 2.5478695483473266 32.59055580166538 2.663255141898258 0 -1 0
858 1 27.20425123613094 29.84336953060449 13.507119890757801 0 0 0
5 1 1.3270522769171824 1.4619151459190318 1.4151341926466618 0 0 0
10 1 5.277162729292358 2.6444035073612326 2.6949314454602464 0 0 0
13 1 6.803337264862009 1.3800532399540624 1.4793348080819588 0 0 0
18 1 10.858553750206534 2.777633035850119 2.8426742331564787 0 0 0
21 1 12.177528178338322 1.3602644120904985 1.433116435550831 0 0 0
25 1 16.41678343958629 32.537416602208765 0.15927008742597262 0 -1 0
26 1 16.344342191193608 2.622771130831792 2.8910235354755263 0 0 0
29 1 17.67356569160914 1.3231563048806099 1.5087057918466174 0 0 0
27 1 19.003172172055592 32.55967401242943 2.768996446562302 0 -1 0
28 1 18.982661161286586 2.5695684996997 0.05357334527909707 0 0 0
34 1 21.72184165715255 2.6434742160561524 2.770174250124025 0 0 0
37 1 22.995268724274187 1.2408945656320134 1.3722792838569047 0 0 0
41 1 27.194115473713957 32.557858295516596 0.008379602150472162 0 -1 0
42 1 27.17888168407592 2.6897173822448583 2.685110399276949 0 0 0
45 1 28.45598004972946 1.3669800329645927 1.3877634241665218 0 0 0
43 1 29.931415385107957 -0.006618670796780208 2.6022577531157314 0 0 0
862 1 28.579687254019976 31.205989420372248 14.988525113507768 0 0 0
611 1 24.62157463831095 0.04482287584055911 13.345957456274673 0 0 0
51 1 2.7026696860326336 5.4220222110472776 2.690537691590959 0 0 0
8 1 4.014424543878952 4.011629100599962 1.3643198102482388 0 0 0
59 1 7.967101120871757 5.455908302476395 2.826936868650143 0 0 0
16 1 9.454451623682274 4.123557717923416 1.578208942187615 0 0 0
67 1 13.63956272456176 5.552250540691067 2.812050240907288 0 0 0
24 1 15.025922271492382 4.075700594339958 1.5941373384763826 0 0 0
32 1 20.353998835553373 3.9853130857492727 1.3086917786233334 0 0 0
75 1 19.062540987188147 5.530790619790352 2.789530968373903 0 0 0
81 1 21.732982683622165 5.40684719258157 0.011542835053593834 0 0 0
40 1 25.74649142613343 3.998323121003142 1.2838158566465616 0 0 0
83 1 24.606362138665997 5.512916496747556 2.746051115055118 0 0 0
48 1 31.122908099870628 4.071574361678765 1.2827868151364583 0 0 0
91 1 29.863171503075826 5.500761077192872 2.6231286572182126 0 0 0
53 1 1.2665701277359849 6.681908761751612 1.2357723351230767 0 0 0
58 1 5.286272553835417 8.112867493296358 2.6014302327863024 0 0 0
61 1 6.7325041558748895 6.7001100510301885 1.3257689210426133 0 0 0
66 1 10.85053456488848 8.196975683919971 2.799891433088076 0 0 0
69 1 12.12729372936421 6.794587941453211 1.4304964905568112 0 0 0
74 1 16.249870827529037 8.266675370538003 2.6671982512615506 0 0 0
77 1 17.644641847151522 6.9263976574399875 1.404460613121973 0 0 0
850 1 21.695973452514657 29.962466932268146 13.538146213177242 0 0 0
82 1 21.767623983491184 8.276469330647576 2.6639392513733324 0 0 0
85 1 23.076107614222437 6.812781275768562 1.3924976713149306 0 0 0
84 1 24.485537637507864 8.04867016923935 0.016034066588607947 0 0 0
90 1 27.114574780935545 8.200657267583082 2.6257996653246747 0 0 0
93 1 28.51437701449204 6.81524458105007 1.355455658354823 0 0 0
50 1 32.5247195137941 8.127062394969132 2.5965709900836647 -1 0 0
854 1 23.271918015473418 31.26834485822828 14.760551756828372 0 0 0
99 1 2.687099291714613 10.909246126126462 2.7182766807349314 0 0 0
56 1 3.9983130427662044 9.551855947952646 1.321698629675435 0 0 0
105 1 5.421664878685334 10.81060045342868 0.04052924407188826 0 0 0
107 1 8.079445515072283 10.809267333685662 2.6840761793433145 0 0 0
64 1 9.457682438668819 9.51417251704584 1.338628752365667 0 0 0
115 1 13.515248326098378 10.911131146111243 2.8297145753895356 0 0 0
72 1 14.765671330712992 9.564567077909405 1.313049347864762 0 0 0
121 1 16.310954343332536 10.851154376321217 0.0313433165202175 0 0 0
80 1 20.30369405117002 9.532374006719103 1.2604208805948909 0 0 0
123 1 18.932657491632753 10.813026555122066 2.68386373299274 0 0 0
88 1 25.84269963759847 9.5197909104848 1.1984975805748257 0 0 0
131 1 24.529384320539513 10.81785127721155 2.6883732888144993 0 0 0
96 1 31.219592019497895 9.473893064971062 1.2491391167757129 0 0 0
139 1 29.98737286839057 10.85286959043579 2.7394260951891787 0 0 0
98 1 32.5306620684764 13.658828919097942 2.6053386366018745 -1 0 0
842 1 16.235209775854834 29.780798688151034 13.551610582316815 0 0 0
101 1 1.3503468121429894 12.291103644688732 1.2662421944112892 0 0 0
106 1 5.403119672031323 13.577705873105215 2.658210628248907 0 0 0
104 1 4.089493831819394 14.916751632091934 1.2849494479506351 0 0 0
109 1 6.77742670438827 12.209541729918234 1.3382329646205062 0 0 0
114 1 10.968621635620497 13.53981765188189 2.596416250223064 0 0 0
116 1 13.551917465715606 13.478501163102662 0.056874777927820974 0 0 0
117 1 12.24054906626873 12.128691331537144 1.3113103957862953 0 0 0
122 1 16.24347252704683 13.554444543950174 2.787303194684594 0 0 0
125 1 17.646896376840118 12.287243024580478 1.43546429420158 0 0 0
130 1 21.798559772979537 13.44284800583013 2.740171308490988 0 0 0
133 1 23.127758091240267 12.27680345246241 1.3616962429942256 0 0 0
138 1 27.226615677954488 13.56095469383239 2.7311368476710154 0 0 0
141 1 28.60382903544883 12.200164563029391 1.3186591018046523 0 0 0
846 1 17.567515020218472 31.158871892740272 14.839119135596777 0 0 0
595 1 13.584568684472853 0.043618242856162226 13.529659377543622 0 0 0
147 1 2.6769711387342676 16.33177679266388 2.605927871956472 0 0 0
149 1 1.3191182135457782 17.715119126265055 1.2734473320729105 0 0 0
153 1 5.5906441123076425 16.202861853880457 -0.008548584648468457 0 0 0
155 1 8.162702921554706 16.246423137828835 2.6646949814343683 0 0 0
157 1 6.946807722972015 17.592747456201423 1.3591097253024271 0 0 0
112 1 9.585588865302933 14.905136238457997 1.2501582887909948 0 0 0
838 1 12.222038206157372 31.225484478767036 14.761785600103245 0 0 0
163 1 13.520411261892454 16.320143035359333 2.582661469311888 0 0 0
165 1 12.297863979499121 17.728802738647843 1.2190545219408513 0 0 0
120 1 14.931191416213704 14.865905569111378 1.4205409300326928 0 0 0
169 1 16.33596040300043 16.220233693637198 0.035884775763709194 0 0 0
173 1 17.73499843752761 17.632736062743955 1.3385260282500864 0 0 0
128 1 20.384666642565644 14.866194933031059 1.3507844053409142 0 0 0
171 1 19.10889421095479 16.344858145230432 2.776469011626746 0 0 0
181 1 22.963825873020852 17.655385982176565 1.373798769679328 0 0 0
136 1 25.881766076046503 14.993610630862078 1.4145624492362388 0 0 0
179 1 24.45167490888137 16.38132762192102 2.7521529629102504 0 0 0
189 1 28.633605655883763 17.62715651601745 1.2990079312209155 0 0 0
144 1 31.195030068897516 14.931798662818322 1.2430161131408661 0 0 0
187 1 29.949189159039044 16.293607040670246 2.6886739651689613 0 0 0
146 1 32.54214937251097 19.03441837327668 2.6224584064300434 -1 0 0
152 1 4.098906610634314 20.268015461686662 1.416961684716192 0 0 0
154 1 5.482146657959687 18.84661404905736 2.6607289625928923 0 0 0
160 1 9.626509371993576 20.445275448201873 1.2451017084073814 0 0 0
162 1 10.905643696099949 19.00086120182904 2.5840234504882638 0 0 0
168 1 15.075293945603722 20.431407977976583 1.2480667760648163 0 0 0
170 1 16.363698194838296 19.103691797573767 2.6655495982850175 0 0 0
176 1 20.364453844996486 20.31461214130167 1.431875687730464 0 0 0
178 1 21.676431188857116 18.908382713043626 2.828345209159168 0 0 0
184 1 25.7602089894687 20.291235485069702 1.2598609159072247 0 0 0
186 1 27.202905898462618 19.024285081073558 2.545446038687992 0 0 0
881 1 10.997980229532267 0.010084613057784964 16.210727332184923 0 0 0
192 1 31.172154638623454 20.387708753712776 1.361169126501688 0 0 0
195 1 2.8258081893689417 21.79927467414186 2.730217856069266 0 0 0
197 1 1.4502870455299137 23.06683347973444 1.4019075132254177 0 0 0
203 1 8.238541695119107 21.71748841503942 2.7615462624631353 0 0 0
205 1 6.899970344691006 23.189401461689094 1.4475113648106184 0 0 0
211 1 13.655764740335258 21.703421572448608 2.6913893906308908 0 0 0
213 1 12.328689722417105 23.13865937500837 1.3489257007538575 0 0 0
221 1 17.73167526185098 23.122873633592093 1.3101936141731976 0 0 0
219 1 18.97727017047985 21.783973122497233 2.692283175115314 0 0 0
229 1 22.95898478799343 23.010357171522156 1.4312062374994654 0 0 0
227 1 24.41916587444039 21.69436300552676 2.6653771391690726 0 0 0
233 1 27.245095696537362 21.647401844573775 0.0657186710605661 0 0 0
237 1 28.5359169508043 23.02378072738328 1.4754345927494856 0 0 0
235 1 29.902360810833898 21.615184224544585 2.8323546423167874 0 0 0
196 1 2.7253214461273947 24.35911469741819 -0.00846854965663342 0 0 0
200 1 4.078555088184966 25.826963081745575 1.2946334223461566 0 0 0
202 1 5.43156347905521 24.56879861123222 2.686182785573207 0 0 0
208 1 9.406757061906173 25.802363890260082 1.4172579309723894 0 0 0
210 1 10.81367940768879 24.44121853923658 2.6306396235505893 0 0 0
212 1 13.750570932215158 24.570344538932037 -0.00027619671205703425 0 0 0
216 1 15.060836215311088 25.822337802122593 1.501024704498752 0 0 0
218 1 16.394244889330306 24.451649854261696 2.724484157836249 0 0 0
224 1 20.354202548703366 25.916151445326786 1.2650735287674058 0 0 0
226 1 21.63451699658666 24.467041404668343 2.661642412216283 0 0 0
228 1 24.32426414337146 24.349211696267542 0.014952018813194658 0 0 0
232 1 25.65876355500979 25.739464671274366 1.3294525868971279 0 0 0
234 1 26.998418764189747 24.357026310311156 2.733298959716723 0 0 0
194 1 0.03557644597075438 24.46191464052525 2.652394205923749 0 0 0
240 1 31.230770084614864 25.93014843378108 1.5189150286131878 0 0 0
243 1 2.7343258553836516 27.20567716283113 2.739089019918726 0 0 0
245 1 1.2940457194564174 28.395459382521945 1.4039493760843498 0 0 0
251 1 7.996405344938685 27.17847443384009 2.6868394957150428 0 0 0
253 1 6.627457489543466 28.54816539007702 1.343668251156268 0 0 0
259 1 13.539752068234465 27.184840952495495 2.680297325922372 0 0 0
261 1 12.190404245187873 28.607732273103842 1.3834271080349951 0 0 0
269 1 17.616229485103126 28.570901966931167 1.3425072728285408 0 0 0
267 1 19.091940460220396 27.223032063924023 2.6534980596151128 0 0 0
834 1 10.90134014768722 29.73418139279898 13.467636528688553 0 0 0
277 1 23.174004958177754 28.520486050473526 1.2092333889430933 0 0 0
275 1 24.461746810351137 27.189608567111403 2.7413287298469426 0 0 0
285 1 28.493247979590212 28.61221487741428 1.4141396639076862 0 0 0
283 1 29.847211649543656 27.272063891476996 2.7691664750666654 0 0 0
242 1 32.50280997888934 29.77870781353641 2.6342059502468635 -1 0 0
244 1 2.6411868521604536 29.766634126827057 -0.015119988722735902 0 0 0
248 1 3.947508407843181 31.182107148903246 1.3313636455119386 0 0 0
250 1 5.324521016433528 29.822406423473065 2.7603475826032864 0 0 0
11 1 8.131430189466709 0.009452067823772836 2.8421068359551565 0 0 0
256 1 9.383929995764818 31.223805690458875 1.444897136631131 0 0 0
258 1 10.806160172843347 29.83490403661413 2.822436900448657 0 0 0
19 1 13.538483925531906 32.56352119040614 2.775522076079098 0 -1 0
260 1 13.734797955102115 29.913861184084546 0.1844143088159162 0 0 0
264 1 14.964745426973115 31.274643280015134 1.5260450297998993 0 0 0
266 1 16.311607789510674 29.83502413068332 2.7589086017559077 0 0 0
272 1 20.410128572097793 31.206263450135296 1.4040259984603922 0 0 0
274 1 21.86453217631976 29.97530258930917 2.8253087314680583 0 0 0
35 1 24.42104286704441 32.54468162582183 2.668644089441295 0 -1 0
1116 1 8.204291585548976 29.974126942214397 16.1341388909839 0 0 0
280 1 25.762339784779826 31.222866796048702 1.442882835607193 0 0 0
282 1 27.198484291044508 29.939360305936166 2.791458164319379 0 0 0
288 1 31.25380890584307 31.260064986084767 1.2777814693481158 0 0 0
292 1 2.743210153616205 2.709891631708932 5.42509855237746 0 0 0
7 1 3.8824544673730963 1.2400414303781597 4.015683921376752 0 0 0
297 1 5.376162835583938 0.06856097812581034 5.322594752620699 0 0 0
300 1 8.014814972053548 2.6679702536643535 5.37920886407087 0 0 0
15 1 9.519042134024236 1.2751036801941655 4.193472330710484 0 0 0
305 1 10.900207971884303 32.558957724119956 5.557124807424315 0 -1 0
308 1 13.582683242184832 2.7514938136430827 5.544436174385198 0 0 0
23 1 14.910085520313084 1.3053155801033915 4.266861895381002 0 0 0
313 1 16.384139382627875 32.535854434445106 5.556999491971259 0 -1 0
31 1 20.28956193025387 1.3763202285002947 4.163600789169221 0 0 0
316 1 19.05875490701894 2.7031384603742676 5.510943502261007 0 0 0
39 1 25.840164680325937 1.3860327884893606 4.099290587055776 0 0 0
324 1 24.529546579840957 2.796878711789936 5.471989255012058 0 0 0
47 1 31.224512600452105 1.4465487843767832 4.0053711820656455 0 0 0
332 1 29.8399986746486 2.884346214195591 5.356160934947756 0 0 0
6 1 1.3675453310385735 4.0634064275480535 4.0732442993129565 0 0 0
337 1 0.01382383551732495 5.4092103353569225 5.227351125105727 0 0 0
345 1 5.309148650472674 5.322225736428312 5.3792832763618605 0 0 0
14 1 6.627269820235691 3.944917562410524 4.08262615334865 0 0 0
353 1 10.80025090012698 5.318114000133099 5.372229203950161 0 0 0
22 1 12.34740100044633 4.1387243483972 4.180926982098107 0 0 0
30 1 17.753383950723165 4.09778560228165 4.05030383753226 0 0 0
361 1 16.310740748115116 5.3506612461968 5.433307501316937 0 0 0
38 1 23.07532745443173 4.142764901398443 3.946290960209659 0 0 0
369 1 21.70921520820593 5.386567376243672 5.5641632549750835 0 0 0
46 1 28.466609193193317 4.115010007733983 3.878367074312478 0 0 0
377 1 27.16560126561253 5.320213711385238 5.36731434729162 0 0 0
340 1 2.7589442546974667 8.05155321632333 5.390087856499264 0 0 0
55 1 4.050505623975487 6.686132895806228 4.002666561031513 0 0 0
348 1 8.105393307724322 8.043231396819944 5.38535761984921 0 0 0
63 1 9.503356570515814 6.745985323936631 4.110728935292371 0 0 0
356 1 13.671267138911132 8.084296413698823 5.5469954143597615 0 0 0
71 1 15.056823254191483 6.862679902141464 4.05192080785371 0 0 0
79 1 20.410468021047386 6.747410458999391 4.098323252815174 0 0 0
364 1 19.02805631710978 8.1390838092784 5.4399945773602045 0 0 0
87 1 25.928402280411245 6.873399583669058 4.1705464469819145 0 0 0
372 1 24.34377768121756 8.115200434402375 5.428180035530583 0 0 0
95 1 31.188445406071125 6.819335234891834 3.9855946069798187 0 0 0
380 1 29.783545359084076 8.110317855679039 5.308420126713751 0 0 0
54 1 1.4104932810319046 9.520285983845 4.083499712012505 0 0 0
393 1 5.44316247173728 10.753777420159874 5.252144460002641 0 0 0
62 1 6.766304616562812 9.285112095480358 3.8792642823178825 0 0 0
401 1 10.945193591579399 10.767520846651655 5.4240362551158885 0 0 0
70 1 12.357760394864318 9.415550774473791 4.040190044875384 0 0 0
409 1 16.165769637650214 10.84620462739123 5.631563171314852 0 0 0
78 1 17.52541265247082 9.574147216429134 4.167738710364122 0 0 0
86 1 23.136937207764532 9.500266431526711 3.9242664298935312 0 0 0
417 1 21.690506888088645 10.71111448365636 5.334468223875945 0 0 0
94 1 28.536484519700256 9.522587926838288 3.9475811651812314 0 0 0
425 1 27.12571215105295 10.878890125656211 5.426332686061149 0 0 0
385 1 32.554248092796854 10.826058592079116 5.5348063186469165 -1 0 0
388 1 2.9351261522819745 13.594466804199012 5.385501057966871 0 0 0
103 1 4.100381396843499 12.149268199776513 3.92700061814873 0 0 0
396 1 8.071180824985872 13.54767886768664 5.396294412718458 0 0 0
111 1 9.528304824240664 12.162924545431034 4.141371746719539 0 0 0
404 1 13.46978292296938 13.629561096999462 5.570741349898447 0 0 0
119 1 14.778483563375117 12.283403806991398 4.30398675329484 0 0 0
127 1 20.360725730474044 12.057007655721442 3.993364769583885 0 0 0
412 1 19.01221150942815 13.525156190400471 5.3526468362243085 0 0 0
134 1 23.077084317506205 14.978746134207453 4.180545175743486 0 0 0
135 1 25.801287391619994 12.272442732220673 4.091276600194895 0 0 0
420 1 24.39204628829135 13.511469722610723 5.454037928317438 0 0 0
143 1 31.36499024675019 12.205835596648063 4.159344605597602 0 0 0
428 1 29.922735197529153 13.625188605798785 5.347691011632009 0 0 0
102 1 1.3793602379800682 14.897303848471001 4.002661086056561 0 0 0
151 1 4.0590920624184585 17.59366849119866 3.932048777478355 0 0 0
441 1 5.348199541426935 16.285380198521963 5.316743469835889 0 0 0
110 1 6.781963022450748 14.848923816998077 4.032061264713272 0 0 0
159 1 9.551716745641768 17.678155419037797 3.9966661161492705 0 0 0
449 1 10.849470050206413 16.28083455796975 5.369384925402756 0 0 0
118 1 12.31088865275403 14.911692363123485 4.026002147546359 0 0 0
126 1 17.622310548663734 14.947989979410112 4.158134272812848 0 0 0
167 1 14.952614090547195 17.643399449150564 3.9261382346865803 0 0 0
457 1 16.18814810669254 16.29188279232024 5.428939731796459 0 0 0
175 1 20.380378490879583 17.64428514842848 4.297529144156944 0 0 0
465 1 21.751941268492033 16.212587298876826 5.63893532897042 0 0 0
183 1 25.828933581365195 17.70612847614455 4.080257856179656 0 0 0
142 1 28.55172765002476 15.050290039155144 4.025861339900642 0 0 0
473 1 27.113301700085636 16.261614765665907 5.361156905577779 0 0 0
433 1 0.025282319730756342 16.28394861020023 5.351301898984735 0 0 0
150 1 1.4574681060730232 20.36710976205627 4.0092603173565236 0 0 0
436 1 2.7434258955313227 19.012676328344412 5.3781315870627875 0 0 0
158 1 6.891669513939531 20.27955934677777 4.043679842524681 0 0 0
444 1 8.272079562082626 18.969781769912927 5.41420753608055 0 0 0
166 1 12.26110022633346 20.37643225642334 3.9772670806533634 0 0 0
452 1 13.509963945154121 19.00960445646428 5.369133191339911 0 0 0
174 1 17.73115309674659 20.478063670229957 4.0991512430238135 0 0 0
460 1 18.893310230100262 19.05088068567769 5.556666076258866 0 0 0
182 1 23.141224512347943 20.332744283521006 4.181063602118753 0 0 0
468 1 24.46410187391454 18.933379504186234 5.579077076923394 0 0 0
190 1 28.438301024431528 20.38189405775904 4.081921033747506 0 0 0
191 1 31.18625575046094 17.680017732276486 4.004827205614712 0 0 0
476 1 29.80170740201768 19.007432828423433 5.364309730618036 0 0 0
481 1 32.5947927578205 21.719408521956087 5.3773205639131465 -1 0 0
199 1 4.15237268602865 23.150475673378917 4.018849811589825 0 0 0
489 1 5.4829993495229 21.730147654688114 5.292781862289691 0 0 0
207 1 9.50224574113796 23.122686730873035 4.0782210060020185 0 0 0
497 1 10.861938399265703 21.702344769801577 5.310518531856606 0 0 0
215 1 15.041785506866443 23.071324086850804 4.048895452557365 0 0 0
505 1 16.226115734409 21.720481798353752 5.381902491191536 0 0 0
223 1 20.310201708327494 23.081027503996847 4.072417618010746 0 0 0
513 1 21.70950922829718 21.78055520665658 5.379957501376636 0 0 0
231 1 25.731548688608868 23.085874265725682 4.251433870615103 0 0 0
521 1 27.062417053527522 21.68805292517235 5.594519290872404 0 0 0
239 1 31.296665131421747 23.21339913218489 4.103804055703917 0 0 0
198 1 1.3847361832254295 25.778116458165254 4.0378803345713425 0 0 0
484 1 2.7815652278574685 24.468720964519086 5.475895254191761 0 0 0
206 1 6.7321602766386315 25.80870871184193 4.115253972147044 0 0 0
492 1 8.205921343700378 24.4239779139059 5.535589950351969 0 0 0
214 1 12.22723218696693 25.67567298501034 3.9503522735379186 0 0 0
500 1 13.651689847130875 24.387923989147076 5.391595883512472 0 0 0
222 1 17.693480174154637 25.826370914286244 4.0527552652231105 0 0 0
508 1 19.02398225327901 24.485309439553067 5.554372976210148 0 0 0
230 1 22.99949323609144 25.853505428648315 4.011921132694449 0 0 0
516 1 24.35777374090336 24.495680315428196 5.453381425369742 0 0 0
238 1 28.39836946312345 25.819671725512972 3.9893427081889588 0 0 0
524 1 29.77184150165988 24.46914642280385 5.417127785732637 0 0 0
529 1 32.5887771232755 27.127350720959495 5.33486168025539 -1 0 0
247 1 4.105887147607899 28.56981821857991 4.178518711452456 0 0 0
537 1 5.439234747386601 27.10716284810027 5.396231682728589 0 0 0
255 1 9.424232442888187 28.38537661405654 4.066631683901536 0 0 0
545 1 10.901612545826154 27.087713789075025 5.313603911796423 0 0 0
263 1 14.998120831314933 28.415826932297367 4.043408310854274 0 0 0
553 1 16.380347332676642 27.154317084999974 5.4376495699932805 0 0 0
271 1 20.35515741918449 28.524526085616692 4.02593806320543 0 0 0
561 1 21.70549653577156 27.162620674621586 5.28006595833245 0 0 0
279 1 25.798902021369233 28.634212612222317 4.064532759038112 0 0 0
569 1 27.04693561363419 27.17036632810237 5.332091370099705 0 0 0
287 1 31.1370614286498 28.62253906031806 4.084423828181014 0 0 0
246 1 1.21050613218611 31.15741582719416 3.9460755491745627 0 0 0
532 1 2.625380397680685 29.938973414561733 5.452456753162885 0 0 0
254 1 6.657249213728088 31.25068612892626 4.033337593424847 0 0 0
540 1 8.072424617583975 29.821394678134283 5.462492536726776 0 0 0
262 1 12.119700447155918 31.188564313623633 4.076038407912703 0 0 0
548 1 13.516040267323007 29.8138450224667 5.255228074326604 0 0 0
270 1 17.57725910571345 31.201761752303472 4.061207654648231 0 0 0
556 1 18.882772666370034 29.857228557323474 5.394065597031746 0 0 0
321 1 21.82222732801832 0.055601479846700386 5.566065761772827 0 0 0
278 1 23.14024007153205 31.27847928617994 4.229683390416354 0 0 0
564 1 24.517924252297238 29.934334116557448 5.495879335896183 0 0 0
329 1 27.16109006002984 32.56453922734227 5.351007640374331 0 -1 0
286 1 28.571119797476427 31.338173797833505 4.036736256219554 0 0 0
289 1 32.55531600334883 0.07433620161297938 5.386032202556976 -1 0 0
572 1 29.86806019293396 29.951117433294353 5.4431747217645965 0 0 0
293 1 1.4474272095219125 1.3430908177315704 6.75053983922403 0 0 0
295 1 4.1658209332445155 1.4077118532948525 9.421941993520896 0 0 0
298 1 5.586876587646674 2.670725223612989 8.056602222061608 0 0 0
299 1 8.271639780256503 32.5185692896621 8.132039272128244 0 -1 0
301 1 6.935033081042353 1.1349407631263229 6.78692023686469 0 0 0
303 1 9.590620920554564 1.3358371507385824 9.518510591479455 0 0 0
306 1 10.831989346123875 2.6487246898613246 8.144404565832968 0 0 0
309 1 12.259292497941201 1.4137819948299906 6.799558968317687 0 0 0
311 1 14.96958793044838 1.3648159527797972 9.419480130727491 0 0 0
314 1 16.46243906998153 2.7145852904210157 8.271937082889462 0 0 0
317 1 17.718334019384507 1.3200247060742814 6.899758277450741 0 0 0
315 1 19.10754658762263 32.596465521430694 8.247758634494707 0 -1 0
319 1 20.398943085869803 1.3782115390662537 9.595881648913739 0 0 0
322 1 21.8384720886066 2.833119328102331 8.341456986230211 0 0 0
325 1 23.15273451588988 1.5660230698018227 6.85682279744388 0 0 0
327 1 26.034343606341597 1.3051271576645451 9.547237438664999 0 0 0
330 1 27.308439465132533 2.7495723938531613 8.239048912621216 0 0 0
333 1 28.48062195970662 1.441247354608262 6.651878644208693 0 0 0
290 1 0.14501769279272025 2.741688193295114 8.044042727351908 0 0 0
331 1 29.832623882540172 0.05241764395383872 8.065661793307632 0 0 0
335 1 31.29637178476061 1.3434598723506619 9.41488277852481 0 0 0
294 1 1.4399933556206101 4.122481124700864 9.536984762051983 0 0 0
339 1 2.699440099487679 5.345534095577086 7.998674864013607 0 0 0
296 1 4.059804894377818 3.9632041384905468 6.820097696737828 0 0 0
302 1 6.87439324025735 4.141893853456111 9.519005553291384 0 0 0
347 1 8.147484397262819 5.459146695926529 8.269137791315611 0 0 0
304 1 9.411041012302944 3.9563225072554578 6.822571413207684 0 0 0
310 1 12.143795400513339 4.033620175259742 9.440096539164335 0 0 0
355 1 13.535805902868326 5.417946323429407 8.066806017123156 0 0 0
312 1 15.110641907290862 3.955203958887623 6.884900901756258 0 0 0
318 1 17.751448514340343 4.155333317588995 9.51244912485222 0 0 0
320 1 20.37749508831591 4.054687865964515 6.938435145411988 0 0 0
363 1 19.021449134482086 5.531483521336505 8.114594230227528 0 0 0
326 1 23.28523703752697 4.076784271212953 9.62389728523949 0 0 0
328 1 25.909922555396886 4.021495444526249 6.794820383332089 0 0 0
371 1 24.54139059156128 5.4229963490397814 8.14896005933322 0 0 0
334 1 28.623318978921656 4.135637900207797 9.490345500211694 0 0 0
336 1 31.27282221205362 4.133915094714883 6.860221698524237 0 0 0
379 1 29.944468974717033 5.4370263196698145 8.200509599578066 0 0 0
338 1 0.04403863805002844 8.072765762824522 8.153305242250399 0 0 0
341 1 1.2968649974014619 6.692213427095212 6.660135225760273 0 0 0
343 1 3.9388890568357575 6.725997784651085 9.406968956084706 0 0 0
346 1 5.344543633712567 8.107222958788807 8.131353494999155 0 0 0
349 1 6.74349899226864 6.682241803845571 6.773055761319412 0 0 0
351 1 9.591458288561743 6.8248896543857445 9.57580549885958 0 0 0
354 1 10.904769338865622 8.041318665920375 8.122049316028916 0 0 0
357 1 12.213195199409943 6.780495021755674 6.655844016288561 0 0 0
359 1 14.804539084249365 6.851572809840158 9.469881536968503 0 0 0
362 1 16.24918479314761 8.147829840859863 8.247754091087824 0 0 0
365 1 17.598675233052127 6.749268251628544 6.869080782354349 0 0 0
367 1 20.344198303593792 6.783740740345988 9.503318513458078 0 0 0
370 1 21.612392980626595 8.150334385116317 8.079537905107886 0 0 0
373 1 23.057727216699863 6.7730964183159585 6.906585885300803 0 0 0
375 1 25.796947966504646 6.7696202199766216 9.49733301656338 0 0 0
378 1 27.046747238024672 8.226271226842831 8.024430091253542 0 0 0
381 1 28.41463271302835 6.683234850515449 6.657801396266325 0 0 0
383 1 31.149278491732915 6.778275728020786 9.55114460601595 0 0 0
342 1 1.287459084692376 9.411799164448489 9.495537471808417 0 0 0
387 1 2.523085073192132 10.795824547221597 8.006606703285865 0 0 0
344 1 4.077558261962499 9.52208782407401 6.7621310775009125 0 0 0
350 1 6.618653047780368 9.457440885571806 9.481125144933374 0 0 0
395 1 8.117023378326147 10.756129824246443 8.14114441748416 0 0 0
352 1 9.451267276232322 9.413777631214547 6.669050467906843 0 0 0
358 1 12.08168021529992 9.53246064297473 9.51458244848408 0 0 0
403 1 13.510389046679713 10.948289019530474 8.266458718780797 0 0 0
360 1 14.847840396238869 9.521292122973012 6.967266516934037 0 0 0
366 1 17.603249049407218 9.498933430014215 9.57154734974157 0 0 0
368 1 20.35274700749964 9.459273717795526 6.722806013410688 0 0 0
411 1 19.053462891544196 10.857453365287348 8.091936201202644 0 0 0
374 1 22.941075341797333 9.537663909248566 9.507437935463631 0 0 0
376 1 25.707207514172794 9.613209709719223 6.7868522501996775 0 0 0
419 1 24.320617087777535 10.856989776632318 8.174599871594376 0 0 0
382 1 28.42646308980915 9.562902214289673 9.401297599730945 0 0 0
384 1 31.296865374019756 9.399169727052277 6.8201646529203535 0 0 0
427 1 29.84856172485001 10.913799763307592 7.975189655509189 0 0 0
389 1 1.324508197159995 12.306609833830423 6.657524861403008 0 0 0
391 1 3.9072025255318885 12.263498529341858 9.381040946796771 0 0 0
394 1 5.3638105949741455 13.411165275285994 7.991733613340101 0 0 0
397 1 6.790918410511845 12.076686731747557 6.69620372939599 0 0 0
399 1 9.431932948712523 12.130905136528174 9.418776508296327 0 0 0
402 1 10.702489401967249 13.443930423128563 8.152845838841008 0 0 0
405 1 12.140642787566291 12.137726442321432 6.8495962681806075 0 0 0
407 1 15.041475973197194 12.253987217743978 9.615716577830273 0 0 0
410 1 16.441589901156267 13.631182385156617 8.135956454230405 0 0 0
413 1 17.68016480588329 12.255499217363766 6.774513778739586 0 0 0
415 1 20.386566666763805 12.260058773742301 9.40778718879337 0 0 0
418 1 21.753928609432574 13.545495312604976 8.099428735204814 0 0 0
421 1 23.029078156563852 12.159296351264068 6.7937215722061035 0 0 0
423 1 25.780277205013455 12.195968240902674 9.504901455370716 0 0 0
426 1 27.162124185670475 13.630920258910542 8.197559825135544 0 0 0
429 1 28.439051574700187 12.3346734983192 6.667242093376678 0 0 0
386 1 0.04440482003663959 13.577926446835846 8.128878271042403 0 0 0
431 1 31.25254135135721 12.291096080885572 9.507927505406647 0 0 0
390 1 1.2259616034356933 14.979868920212528 9.410362675580426 0 0 0
435 1 2.684522117338154 16.277056232931212 8.092512787708952 0 0 0
437 1 1.3253315405000932 17.622567312072967 6.70309990083066 0 0 0
392 1 4.100434504944421 15.074900484585102 6.798518200560283 0 0 0
439 1 4.025355066078508 17.801514675663988 9.471882068798811 0 0 0
398 1 6.646314481356494 14.86341123543291 9.348520282932542 0 0 0
443 1 8.13558885030701 16.266313972724745 8.025919088349289 0 0 0
445 1 6.778319200229263 17.64414961070822 6.71553653310849 0 0 0
400 1 9.466681239221563 14.896208189271292 6.719511012246451 0 0 0
447 1 9.456973025844901 17.607918626532378 9.44541115935299 0 0 0
406 1 11.997126316003904 14.795566944832316 9.51385159833601 0 0 0
451 1 13.449038271377972 16.211503323711003 8.168417227530115 0 0 0
453 1 12.145722561731949 17.631630073593954 6.803994661832642 0 0 0
408 1 14.877754567447978 14.892979945693364 6.842964363315445 0 0 0
414 1 17.72633727171332 14.971083789675202 9.6345025484131 0 0 0
455 1 14.860456727066703 17.530656674158564 9.480213961318794 0 0 0
461 1 17.581536382409897 17.715863530384482 6.790820328516487 0 0 0
416 1 20.347303858273463 14.818732428067724 6.888387942348238 0 0 0
459 1 18.941260498559075 16.26397972214751 8.137179281157783 0 0 0
463 1 20.404199916957495 17.63221040778779 9.594387734573704 0 0 0
422 1 23.05438986305689 15.006048971560304 9.43057867195127 0 0 0
469 1 23.14068466385878 17.68195061194692 6.952062863065899 0 0 0
424 1 25.746002412706083 14.958318012064018 6.778497726092189 0 0 0
467 1 24.477062779318942 16.34862275775697 8.22433137126556 0 0 0
471 1 25.853507725373948 17.658317580178174 9.565089648519407 0 0 0
430 1 28.575303164418717 14.888795100828485 9.513032915031227 0 0 0
477 1 28.55600912955273 17.678348035713967 6.824240845690383 0 0 0
432 1 31.313650430929123 14.973597076269181 6.775429705973521 0 0 0
475 1 29.874891085981282 16.24254719298911 8.18820652754497 0 0 0
479 1 31.319040134760673 17.56045450346595 9.606036951054163 0 0 0
434 1 32.503624626845756 18.993479152744463 8.075304437483544 -1 0 0