LAMMPS data file via write_data, version 19 Nov 2024, timestep = 60000, units = metal

1728 atoms
1 atom types

-0.023412517523464516 32.603412517523964 xlo xhi
-0.023412517523464516 32.603412517523964 ylo yhi
-0.023412517523464516 32.603412517523964 zlo zhi

Atom Type Labels

1 Si

Masses

1 28.0855

Atoms # atomic

3 1 2.6026952592406136 -0.021476644679450034 2.6526223964118496 0 0 0
1148 1 29.91593651354623 29.7797982486868 16.26206696914692 0 0 0
5 1 1.3904900772109308 1.4210224026321185 1.2813851150735704 0 0 0
10 1 5.450690055145319 2.7353088098399714 2.6485458026845423 0 0 0
11 1 8.188611759058862 0.007002122099080198 2.660584636998474 0 0 0
619 1 29.782273579688578 32.5508016362613 13.676545373418532 0 -1 0
13 1 6.746576514891736 1.3718532810594304 1.33590105083306 0 0 0
18 1 10.899849642141715 2.735227978751661 2.6466972279332164 0 0 0
21 1 12.215374530640124 1.2473209452635752 1.3736872018738893 0 0 0
26 1 16.21747309621216 2.713724692067116 2.722634592452981 0 0 0
29 1 17.602316107787757 1.2494932785572543 1.3434263948125484 0 0 0
34 1 21.792269737701083 2.7595894481032635 2.699716049795041 0 0 0
37 1 23.09661728422786 1.3807917557862925 1.281394764533488 0 0 0
858 1 27.119805529515492 29.86654813253521 13.6653621785356 0 0 0
42 1 27.111188379913987 2.704803522559641 2.7188561606344863 0 0 0
45 1 28.472406354585843 1.3870312952650679 1.3608864588017597 0 0 0
2 1 32.59989982915809 2.6372991022125336 2.694348487678603 -1 0 0
43 1 29.996344422740986 0.016126106086589598 2.6607673877642926 0 0 0
44 1 29.826964390055686 2.6929230637841823 0.03802982206971226 0 0 0
51 1 2.6517119775224733 5.4691462582562 2.699620406635313 0 0 0
8 1 4.0945078508384904 4.106635823364672 1.3260154541041735 0 0 0
59 1 8.186221519860082 5.466052557902944 2.571919260803048 0 0 0
16 1 9.524570953218323 4.108505898046745 1.202948323474707 0 0 0
862 1 28.42761467112322 31.229193594919916 14.980243887464704 0 0 0
67 1 13.558444108806771 5.4720863092119 2.5578996629261312 0 0 0
24 1 14.874478343411221 3.971823992595567 1.372055047744272 0 0 0
73 1 16.260953047459942 5.387814161087221 0.015846453001585235 0 0 0
32 1 20.333951996379916 4.030558803909493 1.3279386324243037 0 0 0
75 1 19.034311791828003 5.348236166201894 2.6684839507966407 0 0 0
40 1 25.84280091939623 4.059155355970412 1.2682649048684604 0 0 0
83 1 24.443676043603137 5.405068673408614 2.5983991700279487 0 0 0
850 1 21.74925015699203 30.025783528095758 13.578988609706538 0 0 0
48 1 31.192603758984017 4.10647829433831 1.456938246372994 0 0 0
91 1 29.858271924761446 5.463643141781811 2.7815831210150246 0 0 0
53 1 1.2769233554955888 6.764652592252253 1.4363103276932248 0 0 0
58 1 5.462295568624738 8.100303842439436 2.72910460563081 0 0 0
61 1 6.81813932473568 6.897750092254401 1.2738882416626949 0 0 0
66 1 10.927978063761095 8.175961251449213 2.563754578038113 0 0 0
854 1 23.11598665148959 31.315984265564506 14.954433333161965 0 0 0
69 1 12.223792740045896 6.786622222285952 1.2565410410176465 0 0 0
74 1 16.36028936471817 8.106157396425106 2.6475587109765013 0 0 0
77 1 17.630833704355958 6.682488520420049 1.3421621394561778 0 0 0
76 1 18.94537130688804 8.128359221827097 0.005030689515804534 0 0 0
82 1 21.745840946752377 8.23327184509817 2.71561637764881 0 0 0
85 1 23.066415162216096 6.82136620432013 1.2753545569743858 0 0 0
842 1 16.281169843642356 29.927976843092654 13.59188370962782 0 0 0
90 1 27.15432132502411 8.240223582546216 2.7054046388583837 0 0 0
93 1 28.50097015937487 6.811326477992701 1.4429718744620041 0 0 0
50 1 32.562470245340656 8.130594990920576 2.8076518788469365 -1 0 0
92 1 29.858005418915482 8.193690974328172 0.07129224930111641 0 0 0
97 1 0.061688026996559946 10.867757979508061 0.02292520440981936 0 0 0
99 1 2.737558184054212 10.769047580531993 2.733853555584712 0 0 0
56 1 4.122645339284639 9.443167828554456 1.306717777153725 0 0 0
107 1 8.157349110446525 10.69523426408172 2.7975109607247193 0 0 0
64 1 9.463318046634411 9.430720374315998 1.2701850840076285 0 0 0
846 1 17.63895635598188 31.15268553569832 14.91686025906296 0 0 0
115 1 13.619854605889586 10.806707903249333 2.5275820503063726 0 0 0
72 1 15.031891426605142 9.413718313459292 1.205513304461499 0 0 0
80 1 20.271597513308443 9.489429143422155 1.3912834612549996 0 0 0
123 1 19.015085247962475 10.904587725714455 2.7746397033776846 0 0 0
88 1 25.75079608731248 9.484640755395743 1.2780371167818103 0 0 0
131 1 24.529254476624814 10.896999133928162 2.69459546464064 0 0 0
96 1 31.255195931952834 9.498976456949093 1.3740647755518698 0 0 0
139 1 29.862202122107835 10.858695183660382 2.6566456145278226 0 0 0
100 1 2.6564931787332418 13.648474961254642 0.01324972385435064 0 0 0
101 1 1.4030734523397461 12.293433739280605 1.4785264432472958 0 0 0
106 1 5.415792365364432 13.565726429957053 2.7213955101803244 0 0 0
109 1 6.822935914986201 12.188395610692464 1.4291939260688473 0 0 0
114 1 10.738421373025487 13.599932000835082 2.75904693473723 0 0 0
116 1 13.545516681511783 13.672340511249889 0.05019235202571688 0 0 0
117 1 12.147731526447833 12.212846959384628 1.2780476883688316 0 0 0
122 1 16.26534267605424 13.614075863940522 2.6408735300048813 0 0 0
125 1 17.67445890883387 12.28242116126278 1.3386800792333235 0 0 0
130 1 21.72874735828937 13.563388488382312 2.679756910461306 0 0 0
133 1 23.028700619754726 12.134890489013692 1.363976634791375 0 0 0
1124 1 13.589255803861837 29.85633201524217 16.2823538772529 0 0 0
138 1 27.122780051343845 13.57321753816307 2.6448897144338703 0 0 0
141 1 28.51887253868729 12.270426168691102 1.2607159738346605 0 0 0
98 1 0.0006295107699045843 13.721759877433797 2.6864184779373246 0 0 0
140 1 29.941874736398717 13.605975119403238 0.043373384354266964 0 0 0
147 1 2.7799121691706743 16.37353424059732 2.6821609587632507 0 0 0
149 1 1.3540518938744828 17.63161434449431 1.3966800881199053 0 0 0
104 1 4.046436803800222 14.89906899278573 1.3691282490308865 0 0 0
153 1 5.532124206282789 16.237445972564394 0.12876806458652484 0 0 0
155 1 8.207172098199809 16.27390216506834 2.832720313868369 0 0 0
157 1 6.900545916171399 17.627863475984128 1.392900366276726 0 0 0
112 1 9.465402775060857 14.941303729200438 1.3447080710414272 0 0 0
161 1 10.934745125400076 16.390317348858094 0.022539244288835764 0 0 0
163 1 13.523070638367107 16.397573549465925 2.7154775557964737 0 0 0
165 1 12.140814317223095 17.76253469875722 1.4184635777120225 0 0 0
120 1 14.869466932529917 14.931544579835386 1.3582151825526982 0 0 0
173 1 17.66478226232838 17.622546983495965 1.299703086440029 0 0 0
128 1 20.41970276407918 14.900974761779437 1.263727140044788 0 0 0
171 1 19.069936538027708 16.27433271162815 2.6482797855131124 0 0 0
595 1 13.502552130641666 32.539824721475284 13.553856183324067 0 -1 0
181 1 23.034884499468017 17.612391452950515 1.2069100306153915 0 0 0
136 1 25.771072302720032 14.869424962989294 1.2891232525212504 0 0 0
179 1 24.41292436238715 16.314089187763525 2.6898744578336444 0 0 0
185 1 27.20501384633854 16.29206927493517 0.018411270453407236 0 0 0
189 1 28.509447859278126 17.6367001864019 1.3834606240737282 0 0 0
144 1 31.20394662012821 15.028546904147255 1.3656441256286524 0 0 0
187 1 29.837681812178122 16.375840936820214 2.7447070548451853 0 0 0
146 1 0.072655118910076 19.050482686412753 2.716361645646882 0 0 0
152 1 4.028601838267172 20.359271658320164 1.291414039129883 0 0 0
154 1 5.399611097759281 19.02040311927845 2.6659438535051723 0 0 0
156 1 8.129868841650774 19.055120664038242 -0.014105430788924117 0 0 0
160 1 9.46759591076718 20.36160703489671 1.3433042677539613 0 0 0
162 1 10.789106749468337 19.016768265512106 2.7626194900004593 0 0 0
838 1 12.185412002312447 31.15509601913877 14.938178481276942 0 0 0
168 1 14.968506734279504 20.37494770808073 1.3078329341321953 0 0 0
170 1 16.347321625277896 18.939630507430685 2.657508644612088 0 0 0
834 1 10.814736379184252 29.921606085946713 13.550735745494935 0 0 0
176 1 20.401481257488655 20.379320181487472 1.3073177144327761 0 0 0
178 1 21.78043504105314 18.975418789389643 2.6936342639855386 0 0 0
180 1 24.392466375445817 18.974512766054787 -0.014755361046628095 0 0 0
184 1 25.73188761519319 20.320199099772967 1.3742503465414742 0 0 0
186 1 27.149587704650013 18.950241387666964 2.703264379343629 0 0 0
188 1 29.83734162245108 18.99547566799855 0.02900411001346076 0 0 0
192 1 31.29289401694403 20.331664944048626 1.3290780625532388 0 0 0
195 1 2.701643186702512 21.6702054475684 2.723004438630696 0 0 0
197 1 1.2410412919928577 23.113648322349857 1.3681397349961737 0 0 0
830 1 6.713944365125683 31.217136889754986 14.951534025258777 0 0 0
203 1 8.114149317220198 21.689574597514444 2.6159648687694466 0 0 0
205 1 6.741002763577538 22.967246837809846 1.2665652370642857 0 0 0
826 1 5.41015263909336 29.937123749510285 13.655838724961658 0 0 0
211 1 13.621104195059994 21.69768053483033 2.6162703249381583 0 0 0
213 1 12.191991979642685 23.137143675217622 1.2738544205511404 0 0 0
221 1 17.638402992640263 23.086036563475922 1.3595633743874362 0 0 0
219 1 19.039222954108403 21.682418381106 2.6400592091748574 0 0 0
225 1 21.78260770183272 21.79790843895596 -0.014083839373625277 0 0 0
229 1 23.13054321419031 23.06534289020194 1.4063300637146883 0 0 0
227 1 24.46755604426373 21.743666787164173 2.8351403757817035 0 0 0
233 1 27.026441217345 21.764228537791187 0.005612119637623226 0 0 0
237 1 28.486495132011274 23.028734204316528 1.4052615984489039 0 0 0
235 1 29.82251354768624 21.680144561176043 2.637452171667024 0 0 0
194 1 32.548115143944244 24.503542229031446 2.689117748056128 -1 0 0
818 1 32.60170638089317 29.958239444900794 13.522785740942691 -1 0 0
200 1 4.036099646130933 25.726231075085565 1.2692800717634767 0 0 0
202 1 5.37064278255628 24.31972699427241 2.721498247345611 0 0 0
204 1 8.146349851667123 24.41767676588562 0.046752498089742855 0 0 0
208 1 9.532270478098873 25.892782824747705 1.226105356681069 0 0 0
210 1 10.786708045692732 24.570039725276132 2.5967006765290215 0 0 0
822 1 1.3059834223822226 31.235485745049935 14.903737561006485 0 0 0
216 1 14.906888999535697 25.756275869674308 1.3126650246951228 0 0 0
218 1 16.34601930722339 24.481582367147542 2.6721929113831457 0 0 0
224 1 20.369922187177753 25.800953378421056 1.309816648246904 0 0 0
226 1 21.737595377361362 24.463402431898 2.655514798939192 0 0 0
228 1 24.42709596778775 24.479378362555874 0.053661024163529386 0 0 0
232 1 25.75806745897255 25.80686775688997 1.445109786704826 0 0 0
234 1 27.222739775060784 24.48872532187558 2.800244822980099 0 0 0
240 1 31.136978796556996 25.812625868043465 1.3425578576619723 0 0 0
243 1 2.678422942735715 27.09271221566612 2.664064930211222 0 0 0
245 1 1.4040614300492502 28.49270734529465 1.3171702622968102 0 0 0
251 1 8.086523447173427 27.14708183333068 2.657904710648362 0 0 0
253 1 6.7623346913009446 28.544076549849382 1.3377033319547487 0 0 0
859 1 29.828397183997442 27.169845647825124 13.493255046465512 0 0 0
259 1 13.617456161981458 27.157147743980445 2.592278805912902 0 0 0
261 1 12.181366098837616 28.499464487271975 1.309553142494223 0 0 0
269 1 17.656213628650175 28.57857740120792 1.2509428474123487 0 0 0
267 1 19.0239756945033 27.1406279996357 2.6538601229934784 0 0 0
277 1 22.987654698773134 28.587957797050873 1.3357761283658927 0 0 0
275 1 24.350960394175345 27.2362578605643 2.677078905355915 0 0 0
285 1 28.489005960345644 28.528384730154173 1.3663860661779381 0 0 0
241 1 -0.008049060635244132 27.131545509189873 0.0669739850868622 0 0 0
283 1 29.79962693669144 27.140436736635234 2.7985986218919914 0 0 0
863 1 31.176432301507788 28.585818858168334 14.85996297438759 0 0 0
851 1 24.479448687439596 27.0008205584304 13.614857669366623 0 0 0
248 1 3.988774554007374 31.300751555294646 1.295859440845407 0 0 0
250 1 5.35659354498821 29.906546209850863 2.6559105863983543 0 0 0
855 1 25.6897838066706 28.505566296683963 14.910532703526068 0 0 0
256 1 9.595213741281354 31.14465747296798 1.3638994212012336 0 0 0
258 1 10.834484944544233 29.833834709228718 2.8338635769700087 0 0 0
19 1 13.514016048414463 32.49318234845624 2.782019197144788 0 -1 0
264 1 14.91321248284539 31.22869980556074 1.3596939841305835 0 0 0
266 1 16.260980392699338 29.853371352571386 2.6353063622256445 0 0 0
27 1 19.004682928474665 32.59691700691251 2.728923205879285 0 -1 0
272 1 20.364015341348253 31.339591395413592 1.3636040081230578 0 0 0
274 1 21.774289666839433 30.000137470409662 2.731004403877492 0 0 0
35 1 24.446417382089038 0.041622687341508424 2.6618270398979367 0 0 0
280 1 25.769273185993654 31.263649979232206 1.3702548667876742 0 0 0
282 1 27.131475237306397 29.892201829645433 2.7028282040093563 0 0 0
1 1 0.08288502600193226 32.556835843378195 -0.018828995401433627 0 -1 0
242 1 -0.016358437762441724 29.830121561146523 2.649512023270441 0 0 0
288 1 31.257915620014316 31.24446908217558 1.2686806574641567 0 0 0
292 1 2.6930578966417107 2.568462622608311 5.400783969679963 0 0 0
7 1 4.01028419034162 1.3720005829518114 4.02839527156512 0 0 0
300 1 8.132300868027354 2.678029191402123 5.364673343421302 0 0 0
15 1 9.530825407579522 1.3406800780851003 4.074230645503831 0 0 0
305 1 10.86630156797322 0.01151649611783264 5.500160028943019 0 0 0
308 1 13.51765684064612 2.7225472015955883 5.328918817539787 0 0 0
23 1 14.820668129481396 1.3307406695042743 4.000645562369479 0 0 0
31 1 20.35642291360532 1.3846608606086546 3.9575284862189646 0 0 0
316 1 19.010923994417745 2.6469952461579873 5.467270062609484 0 0 0
39 1 25.799361000638484 1.2994746519436682 4.010864687278463 0 0 0
324 1 24.470172599164407 2.6555130583905213 5.346976625193409 0 0 0
289 1 32.595610221793876 0.04686731249762623 5.333121827693243 -1 0 0
47 1 31.289031389940344 1.3639677952399596 4.023991271948602 0 0 0
332 1 29.875588729825626 2.6797446495165227 5.377267266496776 0 0 0
6 1 1.3452476785403789 3.993046581767957 4.0122187406539105 0 0 0
337 1 0.011696089784208117 5.327605707420642 5.431944102092535 0 0 0
345 1 5.474854142406461 5.417275269195031 5.502968414775823 0 0 0
14 1 6.806945414598408 4.1225172811100395 4.036887490049786 0 0 0
353 1 10.870235042944355 5.364016212426526 5.431414649631129 0 0 0
22 1 12.183175471762434 4.129039540637347 3.983030538659002 0 0 0
30 1 17.617849435017522 3.9982709388062716 4.055789471196151 0 0 0
361 1 16.350144558146976 5.400645956417705 5.371160487266954 0 0 0
38 1 23.118567071643724 4.054848661872044 4.043376356384219 0 0 0
369 1 21.633282658790293 5.3691136197539535 5.342167643033306 0 0 0
46 1 28.539953969885552 4.070368518937711 4.041213665544352 0 0 0
377 1 27.18282791623151 5.416229806976636 5.403410231328907 0 0 0
340 1 2.6776130225554073 8.099938571064262 5.477247356957068 0 0 0
55 1 4.0409548190894045 6.737075582723035 4.096444104995449 0 0 0
348 1 8.252374979531979 8.128787731345557 5.427207316478484 0 0 0
63 1 9.578473215448811 6.804454640676468 3.933363032686944 0 0 0
356 1 13.469423094357351 8.252441794769219 5.243948041770556 0 0 0
71 1 14.900556421128023 6.695305431544742 3.993786665160121 0 0 0
79 1 20.375228775258787 6.749571787687823 3.992527641533263 0 0 0
364 1 19.066676550857 8.145926399818446 5.399452332347434 0 0 0
87 1 25.8337816200727 6.766224130952037 4.024456719882084 0 0 0
372 1 24.493908959288742 8.034684924112618 5.425496344414596 0 0 0
95 1 31.264835433291726 6.7475123526399905 4.055110624035363 0 0 0
380 1 29.855940384238135 8.091392286426776 5.437244949382021 0 0 0
54 1 1.3579688785733812 9.459940617757447 4.12235010690959 0 0 0
393 1 5.440003688310074 10.83061528426384 5.343935864745852 0 0 0
62 1 6.801109185382642 9.404928786313256 4.222442773816603 0 0 0
401 1 10.96585157034192 10.868163106440708 5.372622607855842 0 0 0
70 1 12.251180669045832 9.599371506331664 3.9112612175295443 0 0 0
78 1 17.63223970016022 9.542310822930883 3.960673820723164 0 0 0
409 1 16.285097554495096 10.819433661305224 5.3496533612101675 0 0 0
86 1 23.10864769155754 9.470226795771968 4.053366730565872 0 0 0
417 1 21.808201181964755 10.899197857140436 5.394508865271168 0 0 0
94 1 28.61636123389537 9.526812842328503 4.064384462985399 0 0 0
425 1 27.238748910884617 10.869014001668944 5.424893860373699 0 0 0
385 1 32.54683223569786 10.905282048791863 5.459036550313709 -1 0 0
388 1 2.6812644645592867 13.443157856777436 5.452288366179497 0 0 0
103 1 4.032825937685413 12.175040259552102 4.050126448045168 0 0 0
396 1 8.067307073276973 13.48271267534271 5.408613151464037 0 0 0
111 1 9.491132856626736 12.159532682952815 4.1377457870160725 0 0 0
404 1 13.55959757021835 13.557885170676645 5.317198800902789 0 0 0
119 1 14.919992660943935 12.133426237529887 3.9188007080059335 0 0 0
127 1 20.393132086463197 12.199074692489493 4.051250120653583 0 0 0
412 1 19.012177760288875 13.527474206076743 5.461949711687722 0 0 0
135 1 25.826304808276443 12.161118321364366 4.019791947685848 0 0 0
420 1 24.468033835029658 13.610667414594054 5.351937759162235 0 0 0
143 1 31.25722437224226 12.258293078664883 3.9921109543437128 0 0 0
428 1 29.935612104189236 13.608693353517504 5.37453758380077 0 0 0
102 1 1.3948994457745545 14.890585110230642 3.9956354561155183 0 0 0
433 1 -0.02156194009428415 16.336802130124294 5.325091097982459 0 0 0
151 1 4.174948161588634 17.66860294100628 4.170921135128512 0 0 0
441 1 5.349986071964972 16.34758901151975 5.453071253743902 0 0 0
110 1 6.716486591990825 14.968275349599145 4.087518628401271 0 0 0
159 1 9.515264834808056 17.713968591774243 4.177355059708535 0 0 0
449 1 10.836074746717355 16.265680439579285 5.424330304968495 0 0 0
118 1 12.139602531995033 14.96887880597167 3.9468711818218076 0 0 0
126 1 17.642388019268257 14.881454203968527 3.9919589521059535 0 0 0
167 1 14.910715091555673 17.655645293350176 4.067789151178674 0 0 0
457 1 16.273394859021053 16.310361444949734 5.320699407480541 0 0 0
175 1 20.3895918763044 17.582573070418395 3.9807688158950247 0 0 0
134 1 23.10596718269008 14.933300541784794 4.040332462407162 0 0 0
465 1 21.72012546213038 16.243363625219473 5.408636454001741 0 0 0
183 1 25.84664174872786 17.57096050594143 4.05211915786788 0 0 0
142 1 28.484219608839062 14.958280231224222 3.9887710930635403 0 0 0
473 1 27.170583002302514 16.25487298107178 5.353307705291362 0 0 0
191 1 31.301904260167994 17.736034403054145 3.978445637679078 0 0 0
150 1 1.4304645682727941 20.29747011496054 4.177530394039236 0 0 0
436 1 2.7738832278840655 18.922436664825607 5.6117389145019905 0 0 0
158 1 6.767237979321371 20.380744012957344 4.099114376917883 0 0 0
444 1 8.105799877548337 18.96523242051072 5.415956783465574 0 0 0
166 1 12.191408256269442 20.41419053646036 4.022079434344353 0 0 0
452 1 13.607810065364182 19.061114267378226 5.401193840278021 0 0 0
174 1 17.61575635234575 20.317368372621534 4.010256946282141 0 0 0
460 1 19.046188997525547 18.920414959376032 5.392585306467507 0 0 0
182 1 23.140113810739592 20.349281392393415 4.130770504720194 0 0 0
468 1 24.4766884708918 18.895236820934237 5.340429203979914 0 0 0
190 1 28.52128059639597 20.292309698292975 4.016404709737001 0 0 0
476 1 30.002945656531335 19.027154477477644 5.42883061546792 0 0 0
199 1 4.069991295805747 23.05666102284608 4.09349337355865 0 0 0
489 1 5.441770226283257 21.743908751783824 5.411156421700727 0 0 0
207 1 9.551566277808968 23.077986196579033 3.9028527344664723 0 0 0
497 1 10.88816744695227 21.76958819299664 5.316802563410319 0 0 0
215 1 14.963917583379828 23.170179790482074 4.04812662858609 0 0 0
505 1 16.237561984376306 21.6908219648577 5.320221568476568 0 0 0
223 1 20.360002485721402 23.082827186194038 3.9387356709830277 0 0 0
513 1 21.713004730405313 21.749149404043603 5.391253957165818 0 0 0
231 1 25.814246771565532 23.099433726828753 4.109690703472389 0 0 0
521 1 27.279914771670445 21.763867904571722 5.497429883230425 0 0 0
481 1 -0.011913630406077402 21.671040260876342 5.400811851869967 0 0 0
239 1 31.220396391709794 22.996687450480827 4.0275287230849655 0 0 0
198 1 1.2745292802597263 25.734063978336767 4.051514724940173 0 0 0
484 1 2.5784485814521227 24.3587652125815 5.496776825550657 0 0 0
206 1 6.8013270299680295 25.63712268940692 4.041554830178164 0 0 0
492 1 8.211849160815087 24.36913288044988 5.438515675627054 0 0 0
214 1 12.11953014923863 25.888811045742933 3.9340059769609987 0 0 0
500 1 13.57117444586635 24.496608246854322 5.317497896699627 0 0 0
222 1 17.65023087914915 25.853374235366385 4.128401988618318 0 0 0
508 1 18.996989860043172 24.357658282344605 5.338423045845307 0 0 0
230 1 22.992876431496814 25.883023198260496 3.9803704592342433 0 0 0
516 1 24.34967948789205 24.49470258206561 5.326752818536473 0 0 0
238 1 28.485864139220617 25.81012546809423 4.213231210864811 0 0 0
524 1 29.88852474277813 24.363998930999475 5.522551359283417 0 0 0
529 1 32.46989534182329 27.15243113144562 5.410820509044697 -1 0 0
247 1 4.1665998632586945 28.453473932346302 4.017765160436832 0 0 0
537 1 5.318347674619808 27.04807753721885 5.395626801364961 0 0 0
255 1 9.366841200003481 28.473621731649597 4.135814128107265 0 0 0
545 1 10.846357312989928 27.153611640558957 5.442299306618016 0 0 0
263 1 14.929163045219582 28.48778252183357 4.0496359816901055 0 0 0
553 1 16.28128142130223 27.184165825139974 5.400706109708712 0 0 0
271 1 20.444803359117774 28.554539381236808 4.0677099094026286 0 0 0
561 1 21.673939163780485 27.083903605375014 5.490679835877203 0 0 0
279 1 25.698822591439743 28.580889998308454 4.095477138051459 0 0 0
569 1 27.07180796973589 27.239501614951287 5.442862128713133 0 0 0
287 1 31.139093197567636 28.57196563365195 4.03134214159902 0 0 0
246 1 1.3805957483455202 31.221710691280073 4.075214295888855 0 0 0
532 1 2.7442060664462047 29.796925496769646 5.356055930559628 0 0 0
297 1 5.398779570744567 32.597346566573385 5.3571556031778576 0 -1 0
254 1 6.747536916639208 31.325819909708017 3.996823661437739 0 0 0
540 1 8.080059974713306 29.945707078406464 5.461822260941176 0 0 0
262 1 12.1758753118806 31.20725925615357 4.151236482422567 0 0 0
548 1 13.634074933441152 29.878361145782744 5.475227029754154 0 0 0
313 1 16.238254832589284 32.56588684254042 5.363402490020867 0 -1 0
270 1 17.577239576808296 31.20033027581268 4.0410756664108405 0 0 0
556 1 18.99394956030515 29.816928244351324 5.4086851141126004 0 0 0
321 1 21.730086607201976 -0.021365453680445512 5.322963428450561 0 0 0
278 1 23.17561346949642 31.30661062282964 4.085736337756733 0 0 0
564 1 24.36002493523006 29.834718017342794 5.489388527965453 0 0 0
329 1 27.16737049193423 32.595269310211435 5.40723120380786 0 -1 0
286 1 28.52480377764358 31.237009839179933 4.013940692894098 0 0 0
572 1 29.85074409473269 29.96790226970167 5.424934916914691 0 0 0
290 1 32.54855545016716 2.6077155764805933 8.207730868866435 -1 0 0
291 1 2.611624834516478 32.56444246868865 8.139066386224602 0 -1 0
293 1 1.2982926378237265 1.3162977417573876 6.7995262401446075 0 0 0
295 1 3.9885790064216913 1.27649128815439 9.44529207709148 0 0 0
298 1 5.348919281756343 2.6351869246039 8.058764226375171 0 0 0
299 1 8.052217468572005 32.583447536172855 8.113540237108928 0 -1 0
301 1 6.752338481012975 1.2760528117053074 6.682741333455173 0 0 0
303 1 9.484587401525737 1.3750966698756122 9.447239009320759 0 0 0
306 1 10.809559679774559 2.736421928765906 8.102835940587875 0 0 0
307 1 13.623154871281294 0.03860409189196395 8.21341289987807 0 0 0
309 1 12.217065148796184 1.3298381835312458 6.877479338668343 0 0 0
311 1 14.984452408884865 1.4656680245791325 9.524746014626649 0 0 0
314 1 16.244736932794925 2.798871086823259 8.138331101639103 0 0 0
317 1 17.54891536954497 1.3094347386977725 6.812596972416702 0 0 0
319 1 20.359532667914745 1.2949303264849155 9.472175879264327 0 0 0
322 1 21.69472673554301 2.531803233889465 8.070769948780454 0 0 0
325 1 23.118533596455208 1.283280634081743 6.714573268602677 0 0 0
327 1 25.752972489078452 1.2697594010405053 9.569757988736558 0 0 0
330 1 27.268089319348153 2.5767964447563534 8.279524496702932 0 0 0
333 1 28.51353628494321 1.3274183613460013 6.791005487553822 0 0 0
335 1 31.18179410957253 1.279517862550864 9.555362139644927 0 0 0
294 1 1.243364611688638 4.032233343218026 9.538236425403829 0 0 0
339 1 2.7371384927731066 5.335345219356434 8.127646686685734 0 0 0
296 1 4.098211115420284 3.999139145833345 6.735775380196941 0 0 0
302 1 6.767449511300191 3.9155074699722685 9.42468799908516 0 0 0
347 1 8.20426190091518 5.427525312646737 8.165123079491059 0 0 0
304 1 9.542258718731677 4.0468220338988505 6.753334459695289 0 0 0
310 1 12.27356750019687 4.0333668668299545 9.475701380135382 0 0 0
355 1 13.555568329501213 5.500909510135897 8.035535835088577 0 0 0
312 1 14.913997555665059 4.116558848029577 6.695314059054676 0 0 0
318 1 17.70741762370538 4.047111027537739 9.490196352573948 0 0 0
320 1 20.378540394168443 4.031944678964123 6.764248113680116 0 0 0
363 1 19.033518640137824 5.4291258957087045 8.067636445327883 0 0 0
326 1 23.021249927528313 3.924784836551199 9.475629509407614 0 0 0
328 1 25.918355364433417 3.9131804040606206 6.826552353294983 0 0 0
371 1 24.456126902684137 5.219696977482058 8.135106827454734 0 0 0
334 1 28.609995292452737 3.9611431493864067 9.535872721549515 0 0 0
336 1 31.22976384966222 4.028823912754432 6.766117341966889 0 0 0
379 1 29.93911338647826 5.381583664086274 8.176129954429157 0 0 0
338 1 32.57035624238135 8.092289307691914 8.154542662513062 -1 0 0
341 1 1.2961376792296584 6.7155316259827815 6.751933004921419 0 0 0
343 1 4.080506947584892 6.7481955057735075 9.514093632099307 0 0 0
346 1 5.460584346069269 8.198747210989323 8.219723651343923 0 0 0
349 1 6.844526992755841 6.842948509014112 6.878365496319278 0 0 0
351 1 9.612719033263431 6.792281645501608 9.563002576283521 0 0 0
354 1 10.846043509425499 8.217054828181288 8.09971632393265 0 0 0
357 1 12.200832894961 6.943716068034681 6.680513401606522 0 0 0
359 1 14.969657372571374 6.780673482336335 9.357971785212234 0 0 0
362 1 16.265005845197408 8.1790466285829 7.983285497619253 0 0 0
365 1 17.66477336457595 6.768693953535356 6.726186797106916 0 0 0
367 1 20.37559461042421 6.759059942901548 9.399820643080886 0 0 0
370 1 21.833934668346767 8.07305752974978 8.074814109919162 0 0 0
373 1 23.035452546967228 6.647447325218626 6.683824475680195 0 0 0
375 1 25.76480212614219 6.722876084231873 9.407870315418947 0 0 0
378 1 27.063828116784418 8.091087084540778 8.108067625900912 0 0 0
381 1 28.495495186061618 6.670343459546797 6.763091576818613 0 0 0
383 1 31.261828651263066 6.670705496160988 9.530670903800639 0 0 0
342 1 1.3004824538704411 9.478573802423304 9.478647724897431 0 0 0
387 1 2.708616545126045 10.87320240281703 8.176189674144636 0 0 0
344 1 4.067079188874745 9.55763023098328 6.837101228561349 0 0 0
350 1 6.749328230820934 9.505609175172623 9.570141567216771 0 0 0
395 1 8.077503903273096 10.838681553334652 8.139216741357354 0 0 0
352 1 9.620508971020362 9.545938187391908 6.714531423572987 0 0 0
358 1 12.21065282399226 9.517127155783422 9.584773960885277 0 0 0
403 1 13.541506147347068 10.77967551062813 8.158407967443631 0 0 0
360 1 14.937492567198339 9.496913318527145 6.651313494569149 0 0 0
366 1 17.674593773093946 9.485576337657097 9.375013522152663 0 0 0
368 1 20.451206621463342 9.524318704901166 6.763948428326613 0 0 0
411 1 19.088588945972237 10.835704881420776 8.085979135030776 0 0 0
374 1 23.142287902047208 9.456540044315071 9.476538355597913 0 0 0
376 1 25.812981353782146 9.53783534802446 6.707806290713081 0 0 0
419 1 24.48363827739788 10.890320244432004 8.06571037137943 0 0 0
382 1 28.462085611046454 9.327179253302521 9.575897972195532 0 0 0
384 1 31.24291494935327 9.505186877731932 6.75187266677269 0 0 0
427 1 29.749584790810264 10.772342409001986 8.143385562989634 0 0 0
389 1 1.2663706183378454 12.249430884118965 6.811271270612377 0 0 0
391 1 4.118894664508131 12.176334092550153 9.570724345159226 0 0 0
394 1 5.3522483121523505 13.55937750048484 8.190842337598388 0 0 0
392 1 4.058029120479673 14.918758422015488 6.794868428389697 0 0 0
397 1 6.663928250064335 12.146650553804577 6.797944726423173 0 0 0
399 1 9.363669963787542 12.241772847045295 9.481486289158656 0 0 0
402 1 10.855418568579097 13.551759797088996 8.21295172619662 0 0 0
405 1 12.173452770984094 12.197806748869782 6.752204301056932 0 0 0
407 1 14.898001067542268 12.137707290277483 9.3931577217382 0 0 0
410 1 16.36789020388688 13.510394902806034 8.076184193988109 0 0 0
413 1 17.632945318798296 12.063578328496039 6.7343749818121115 0 0 0
415 1 20.347926710344463 12.276406171464307 9.47045197280115 0 0 0
418 1 21.734549111294385 13.659279770143648 8.189570899988773 0 0 0
421 1 23.133150192438848 12.263954398686318 6.832510040470669 0 0 0
423 1 25.858181337279493 12.165442528378986 9.567314925591035 0 0 0
426 1 27.07147483990138 13.541842478852802 8.08658236328472 0 0 0
429 1 28.606404089858916 12.301405276697738 6.833728362458259 0 0 0
386 1 32.58480865342527 13.7646705197279 8.09789143983751 -1 0 0
431 1 31.218017148170105 12.236602549946532 9.424486775317362 0 0 0
390 1 1.4160216468363003 14.946838878654155 9.447261957670493 0 0 0
435 1 2.723686630596009 16.238146571462355 8.161866943900902 0 0 0
437 1 1.3563146902164775 17.572991961055973 6.796889225046162 0 0 0
439 1 4.120208816709716 17.609142390280653 9.514666856004446 0 0 0
398 1 6.66979087162117 15.03170220020045 9.393704979585168 0 0 0
443 1 8.11987224125552 16.31894222695406 8.10961900858818 0 0 0
445 1 6.757244710959972 17.595252717831457 6.746637256996715 0 0 0
400 1 9.460754924512083 14.930023161789807 6.728175629801024 0 0 0
447 1 9.560307341041696 17.624476801302546 9.428864479594543 0 0 0
406 1 12.163439377011795 14.968753749963883 9.539745850992498 0 0 0
451 1 13.602072708252114 16.322697852848773 8.052762099733686 0 0 0
453 1 12.218303984135073 17.710906587868347 6.723166290058988 0 0 0
408 1 15.004681723871746 14.87158150051269 6.747240883434295 0 0 0
414 1 17.65421930291078 14.971349430085006 9.464680083261289 0 0 0
455 1 14.89616563992474 17.681508404758105 9.417546969061512 0 0 0
461 1 17.630126275930007 17.66165211231043 6.7468604881813885 0 0 0
416 1 20.329185377070328 14.902296000465027 6.822365001450068 0 0 0
459 1 19.071079633302194 16.355941643428302 8.167267776577553 0 0 0