LAMMPS data file via write_data, version 19 Nov 2024, timestep = 60000, units = metal

1728 atoms
1 atom types

-0.02984933919394095 32.609849339194255 xlo xhi
-0.02984933919394095 32.609849339194255 ylo yhi
-0.02984933919394095 32.609849339194255 zlo zhi

Atom Type Labels

1 Si

Masses

1 28.0855

Atoms # atomic

2 1 0.07913194240148821 2.695758923490495 2.6877591069240605 0 0 0
3 1 2.7511663125396333 0.004370811076470075 2.729878489909511 0 0 0
4 1 2.6138372212880725 2.652162698761243 0.0018973586549754127 0 0 0
5 1 1.3512961864641593 1.222650087882139 1.3241979064535037 0 0 0
10 1 5.46536350559173 2.772913047862103 2.6358904301207815 0 0 0
11 1 8.073673420275263 32.56433540629439 2.780517868570871 0 -1 0
1148 1 29.969386543890447 29.86566207668125 16.084576984991962 0 0 0
13 1 6.760301093544737 1.2767957884649872 1.3040960448182377 0 0 0
18 1 10.824658167446207 2.550044137275157 2.707646962296168 0 0 0
20 1 13.50166091752213 2.782955211396342 0.09267466938988934 0 0 0
21 1 12.231719355297146 1.2530115819639578 1.3676145011857777 0 0 0
25 1 16.262043717025463 0.019814175219690443 0.29944980963376805 0 0 0
26 1 16.182401044573037 2.7947403648335905 2.7195083678060135 0 0 0
29 1 17.725487052436577 1.4793968826497417 1.551046263678343 0 0 0
34 1 21.84258043801931 2.619526456276459 2.7945579591812635 0 0 0
37 1 23.107390122989038 1.301550079473383 1.295795451169676 0 0 0
35 1 24.374228202463904 32.57789807442083 2.4839404634650566 0 -1 0
858 1 27.105210290206387 29.923936274165506 13.523178932957311 0 0 0
42 1 27.138355807737355 2.7378765740342166 2.528388880449281 0 0 0
45 1 28.49738404111759 1.3389379405057125 1.3351375257131586 0 0 0
43 1 29.895059029496636 0.03195371801711274 2.5746070294413395 0 0 0
862 1 28.409437304704955 31.246680470612905 14.86117649431595 0 0 0
51 1 2.652044152396237 5.287165423201046 2.7752469232949015 0 0 0
8 1 4.011154520547782 4.004663740204211 1.4154435331646111 0 0 0
57 1 5.288005753950044 5.318885065061654 0.0005034410769191647 0 0 0
59 1 8.164424906062587 5.3902035003970825 2.525620045906934 0 0 0
16 1 9.38814165056263 3.9508784528478835 1.3606217829608707 0 0 0
67 1 13.535195247200969 5.516557983511658 2.7167377709694773 0 0 0
24 1 14.924818717546097 4.191577742024202 1.3635581495036164 0 0 0
73 1 16.343157989639767 5.457073967775341 -0.014622095321714846 0 0 0
32 1 20.356779820323386 4.034988930968238 1.470464630803721 0 0 0
75 1 18.974522296574484 5.361426648238677 2.8529308992781153 0 0 0
81 1 21.725183700352687 5.301573169175939 0.06435534127278233 0 0 0
40 1 25.690500628545127 4.096145270224123 1.2390283852588417 0 0 0
83 1 24.39175439521847 5.432331478085949 2.6474520084349584 0 0 0
49 1 0.009167909469134372 5.36329153177681 -0.02543606469570259 0 0 0
48 1 31.404456902532665 3.982121142869852 1.3381858592898639 0 0 0
91 1 29.83465584017714 5.300692608026532 2.5948442529429516 0 0 0
52 1 2.5927048662665295 8.082295994304914 0.018792351248508546 0 0 0
53 1 1.3101718897000247 6.665749385493835 1.4458972654535014 0 0 0
58 1 5.3753865628576 8.060677140261745 2.758653223827479 0 0 0
61 1 6.727154437322432 6.79446006371696 1.2741161524751432 0 0 0
66 1 10.789594966361008 8.152083072544624 2.61398548833573 0 0 0
69 1 12.146269517502715 6.821597600791803 1.2547234600868382 0 0 0
74 1 16.279709128290015 8.107264394396447 2.738346346324687 0 0 0
77 1 17.704475720285153 6.762369400453109 1.4435541875178406 0 0 0
76 1 19.00677098501236 8.148216436476869 0.014173433233063316 0 0 0
82 1 21.76589356865065 8.091132152605748 2.7903835326135034 0 0 0
85 1 23.00964096019764 6.808218732168193 1.3326853580488698 0 0 0
84 1 24.384422271837824 8.148449924160047 -0.018355047610009362 0 0 0
90 1 27.16416482411461 8.093211174983672 2.6120922516368243 0 0 0
93 1 28.538372865644863 6.747105396422566 1.291820475894849 0 0 0
50 1 32.520197958352846 7.987452991152731 2.6554202633110067 -1 0 0
850 1 21.803720511094973 29.95435539408583 13.545506185176635 0 0 0
99 1 2.6300922279831327 10.803066386845734 2.6571047963663674 0 0 0
56 1 4.080380140229778 9.399248139611426 1.2676455111631788 0 0 0
854 1 23.050372472025977 31.32769570080007 14.944926609872738 0 0 0
107 1 8.202143404842904 10.75450204524208 2.8228147790591738 0 0 0
64 1 9.492707473085517 9.49963054924483 1.3227144885310211 0 0 0
115 1 13.639271887906744 10.908165170823185 2.8354143562700376 0 0 0
72 1 14.912687312845168 9.45568555153583 1.4152074019103944 0 0 0
121 1 16.286917549901112 10.757811594137065 0.02985545406585605 0 0 0
80 1 20.36417127897424 9.4868116690741 1.4140886516933189 0 0 0
123 1 18.90242852331173 10.839909969766742 2.697318078972632 0 0 0
129 1 21.674917437603522 10.860739779196727 0.059209626693871656 0 0 0
88 1 25.780369511891866 9.497837491617556 1.312654136255407 0 0 0
131 1 24.556035126535026 10.95847237900534 2.7488145161603232 0 0 0
842 1 16.229286887110817 29.957351836642395 13.321169262714474 0 0 0
96 1 31.297749234860362 9.387461040072274 1.2658649306479939 0 0 0
139 1 29.96306341679909 10.937334174279567 2.6494700017262938 0 0 0
98 1 -0.019922827824081467 13.682209254407557 2.533683754671671 0 0 0
101 1 1.4255339826451583 12.1962497823198 1.2761969282030021 0 0 0
106 1 5.4309331199472775 13.466456173018512 2.6304564420397942 0 0 0
846 1 17.611482900777634 31.346025291392817 14.831414617081782 0 0 0
109 1 6.822838512447061 12.047039075970908 1.4011352171033487 0 0 0
114 1 10.843827398493326 13.520796133232375 2.7843997952373503 0 0 0
838 1 12.26522216328709 31.18736184039078 14.898968065616017 0 0 0
117 1 12.31038325383775 12.272520455888028 1.3984695463608712 0 0 0
122 1 16.21672302055023 13.642504760535182 2.7093799515561896 0 0 0
125 1 17.494600060692584 12.122049425148639 1.391397914018963 0 0 0
124 1 18.961465490017055 13.580066184058415 0.030576225189485086 0 0 0
130 1 21.68698228214403 13.508458443350591 2.6963253567399015 0 0 0
133 1 23.095769039430834 12.184542071983898 1.3225540342533937 0 0 0
132 1 24.60984661105107 13.49275282517514 -0.016818605436869617 0 0 0
138 1 27.168910467256502 13.560025199691118 2.6120614517290015 0 0 0
141 1 28.590836557766877 12.207498190882744 1.2796909518554123 0 0 0
147 1 2.8210208643167767 16.33889582631424 2.6639869902772078 0 0 0
149 1 1.4446047679303287 17.735857388790667 1.3120411457158707 0 0 0
104 1 4.095916009806865 14.95353364272616 1.3237141090551077 0 0 0
153 1 5.519071149753006 16.354668251062066 0.054582692041546046 0 0 0
155 1 8.181074859881623 16.284863127946334 2.680754860856832 0 0 0
157 1 6.995481312800982 17.658523213084294 1.3655779592762871 0 0 0
112 1 9.641251339238774 14.871100705198495 1.3716559601232954 0 0 0
161 1 10.859768292712776 16.293172433619805 0.020698786777533014 0 0 0
163 1 13.503842569680096 16.334618783394582 2.693209630695697 0 0 0
165 1 12.244065193479766 17.64567362028835 1.2810162743700055 0 0 0
120 1 14.883327518930255 14.929194390041554 1.3189924641937714 0 0 0
169 1 16.308449044017436 16.30275186919398 0.04793510891712998 0 0 0
173 1 17.603695774433522 17.78462381540117 1.3498072362287226 0 0 0
128 1 20.360387325919493 14.93111386506822 1.3963795942344857 0 0 0
171 1 19.00578802601609 16.377363964710668 2.7186664772277407 0 0 0
181 1 23.16507625979195 17.634919044712536 1.259748912064229 0 0 0
136 1 25.86519585342351 15.015923933064855 1.258265552746668 0 0 0
179 1 24.478838006579622 16.23932607135219 2.6092889958536287 0 0 0
189 1 28.538922070393017 17.66756051246281 1.2899950125134936 0 0 0
144 1 31.3843250469886 15.09682405777566 1.1355808399941243 0 0 0
187 1 30.03664397474245 16.34012837523753 2.6372957211082197 0 0 0
146 1 32.572896875858085 18.939979979963294 2.666344990132327 -1 0 0
148 1 2.804766395832103 19.03479683090169 0.05309012114300992 0 0 0
152 1 4.16911081051264 20.385432596691697 1.4970705838639562 0 0 0
154 1 5.522979117533578 18.954043409228174 2.7378158347286137 0 0 0
160 1 9.49335685650024 20.345999196455157 1.2354885041340966 0 0 0
162 1 10.822529130778493 18.992734273432344 2.5585463814468747 0 0 0
881 1 10.74857003732682 32.48526542978713 16.119697452963734 0 -1 0
168 1 14.840175226057218 20.476062629283298 1.1991039149563412 0 0 0
170 1 16.12669387530379 19.112510572172813 2.688821359106466 0 0 0
176 1 20.308258512602265 20.38410490994682 1.4050648376923298 0 0 0
178 1 21.739905659004545 18.915611152347605 2.605866660030119 0 0 0
184 1 25.79471468137612 20.503240269398212 1.310296138437525 0 0 0
186 1 27.07006221810582 19.1270367828457 2.6922607943322783 0 0 0
188 1 29.901992515608434 19.081836774669718 0.02650624702047459 0 0 0
192 1 31.25298106322199 20.388647109245596 1.4696252178856513 0 0 0
195 1 2.769294400628161 21.77088126915049 2.7457975650200135 0 0 0
197 1 1.3895363143340593 23.05419236261104 1.4103196585393984 0 0 0
203 1 8.167184629205906 21.77415184497729 2.6028795704214853 0 0 0
205 1 6.786583924678522 23.009385809913372 1.3338692477681158 0 0 0
211 1 13.607379230554864 21.760395691405126 2.661044130810977 0 0 0
213 1 12.2161224257896 23.036170478807577 1.3078382926463774 0 0 0
834 1 10.984209315589917 29.92218800706052 13.467014087633704 0 0 0
221 1 17.59321413436359 22.91920424136288 1.3197509284972528 0 0 0
219 1 19.06249921789199 21.728168157229664 2.7746555278490757 0 0 0
229 1 23.045373782735023 23.155422009292558 1.380941447505411 0 0 0
227 1 24.437900338522052 21.777705743788275 2.723480833452712 0 0 0
237 1 28.532170243969404 23.098936579361023 1.3509946534661221 0 0 0
193 1 32.55297891323926 21.70519601471816 0.039603203658824145 -1 0 0
235 1 29.849667726019746 21.800472360057526 2.7487704411611773 0 0 0
200 1 4.060454836945708 25.74857357981008 1.3501953349796185 0 0 0
202 1 5.4659997488710514 24.41608288867908 2.7481999316371026 0 0 0
208 1 9.515500030634104 25.755961105675414 1.310585713378911 0 0 0
210 1 11.03545335213277 24.453195901308785 2.584653072806466 0 0 0
216 1 15.04809833658772 25.793503942523817 1.4207103540981867 0 0 0
218 1 16.43029412867703 24.420469250705466 2.666292598997548 0 0 0
224 1 20.38339035874717 25.725845802886262 1.3909716213770524 0 0 0
226 1 21.66256652957926 24.38085426499356 2.7004952813091663 0 0 0
232 1 25.64503386463319 25.760707169758543 1.3216414585777845 0 0 0
234 1 27.070004842357402 24.427775963774902 2.7477418506508378 0 0 0
194 1 -0.017845667561324774 24.433147731075145 2.6923648959771844 0 0 0
236 1 29.807480360373166 24.518211545317975 0.06107915684755588 0 0 0
240 1 31.209742695721513 25.907634207771967 1.4021503284607424 0 0 0
241 1 0.05199912279274542 27.13657809890035 0.051168633194699734 0 0 0
243 1 2.6980320042655506 27.122737445844265 2.773499612730042 0 0 0
245 1 1.3604532715705173 28.48920640576883 1.4214997399095448 0 0 0
251 1 8.177468060844395 27.121604175373456 2.6780921230323576 0 0 0
253 1 6.621945816430208 28.596650519546298 1.4419978278233898 0 0 0
259 1 13.687232904146757 27.18410869479864 2.688934725925016 0 0 0
261 1 12.205788629266422 28.43261536538094 1.2816875496765348 0 0 0
265 1 16.344615225376486 27.251694471585832 0.019894498127214593 0 0 0
269 1 17.63533648577702 28.476158494596405 1.4240672604132012 0 0 0
267 1 19.12249415811918 27.11875546363755 2.7034454616553827 0 0 0
273 1 21.617995071448206 27.068351080966224 0.019816631040649933 0 0 0
277 1 23.013021386986328 28.477326319616544 1.3049621560832554 0 0 0
275 1 24.347192802297876 27.17616933541726 2.7193693047888208 0 0 0
281 1 27.136649602028193 27.082810185278237 -0.013586981703393874 0 0 0
285 1 28.452144271218266 28.41740523566927 1.3304465123434066 0 0 0
283 1 29.76403445440834 27.199156359378673 2.7325567613203954 0 0 0
242 1 -0.008868050352677247 29.859525777411104 2.657161242455252 0 0 0
248 1 4.1490553642087065 31.357451663173638 1.3592872311461222 0 0 0
250 1 5.368094982551457 29.87645041673514 2.7012850155637094 0 0 0
256 1 9.35898895605212 31.19695656118167 1.3636628343548511 0 0 0
258 1 10.887930794705827 29.885704897506226 2.7159881517134234 0 0 0
19 1 13.505570224706265 32.58644679423331 2.840422172213732 0 -1 0
587 1 8.116197150914294 32.54919778934543 13.353026690476167 0 -1 0
264 1 14.862873940020425 31.232347673110745 1.4037319772227734 0 0 0
266 1 16.33302965977671 29.959157964733247 2.772636946246163 0 0 0
27 1 19.08098117138836 -0.016874722537544073 2.7494340336853598 0 0 0
830 1 6.776004907379758 31.25164958130786 14.839726715007489 0 0 0
272 1 20.433866049782463 31.257656617063628 1.3142080516368728 0 0 0
274 1 21.772693651867026 29.881101842991168 2.687896687009299 0 0 0
280 1 25.84433256987824 31.27268018951988 1.2189763341308617 0 0 0
282 1 27.191067935461785 29.901283472227068 2.662822842831748 0 0 0
288 1 31.253551820452316 31.205716537764097 1.3609675433027244 0 0 0
292 1 2.6825430387517453 2.813696768066633 5.405590586672787 0 0 0
7 1 4.031125613756119 1.4281773611072326 3.9865304678237563 0 0 0
300 1 8.174846955795651 2.7234180892895052 5.363987787244995 0 0 0
15 1 9.369641086267963 1.2711242585397933 4.085936985586913 0 0 0
305 1 10.805648771322247 32.50642386991687 5.3051309046389035 0 -1 0
308 1 13.525127770838465 2.7061812600432487 5.5314713803739135 0 0 0
23 1 14.892660812079523 1.3351992719129222 4.097550979424816 0 0 0
313 1 16.322129185288784 0.09087817218961064 5.463923918530523 0 0 0
31 1 20.403061014447744 1.3483023703254322 4.095845681998092 0 0 0
316 1 19.019286573473146 2.6449256804536905 5.45182664293005 0 0 0
39 1 25.799308313757198 1.395126395546479 3.876343595035963 0 0 0
324 1 24.466917560736952 2.682943517657112 5.334696232687349 0 0 0
47 1 31.324173124672193 1.325381756662503 3.8967723219460746 0 0 0
332 1 29.971506227348147 2.717991721765048 5.313292110972378 0 0 0
6 1 1.2332854999143967 4.062664361412948 4.072054273655729 0 0 0
345 1 5.434831215703678 5.34102560492436 5.380218328601673 0 0 0
14 1 6.806516154977465 4.111349490289459 4.003009842212071 0 0 0
353 1 10.866340024142888 5.467820411219069 5.397644151513266 0 0 0
22 1 12.224424829130061 3.9950837731230715 4.131478680455901 0 0 0
30 1 17.600415440084618 4.037619608098632 4.2091507173810285 0 0 0
361 1 16.22430505446734 5.4848841671875075 5.417776650941488 0 0 0
38 1 23.15423967674392 4.039309231664366 4.074925806977173 0 0 0
369 1 21.789479007052154 5.391082516953506 5.378881284243367 0 0 0
46 1 28.55164134153334 4.004517857047318 3.920328111007545 0 0 0
377 1 27.186493481749647 5.357606449638919 5.329287499658541 0 0 0
337 1 32.48285213109477 5.381388560348845 5.323220794665471 -1 0 0
340 1 2.618244211901242 8.077003210948858 5.4943539202926175 0 0 0
55 1 3.9588543910503615 6.592323124466563 4.172841943275914 0 0 0
348 1 8.172795392097298 7.984227843737405 5.36825802880021 0 0 0
63 1 9.517893742616723 6.637631167294477 3.937858079498739 0 0 0
356 1 13.541695975974765 8.149274705749846 5.351002075621558 0 0 0
71 1 14.90724319194757 6.774762881060109 4.09516950046698 0 0 0
79 1 20.358554061608395 6.759666709950022 4.112623510850397 0 0 0
364 1 19.068246214421293 8.221697696746379 5.335462441640869 0 0 0
87 1 25.746611782035483 6.860461280226901 3.9899507680027853 0 0 0
372 1 24.496170662513297 8.092871860218489 5.403548186732356 0 0 0
95 1 31.045483824806244 6.68557197900746 4.019434608379148 0 0 0
380 1 29.900541906202584 8.268866969382817 5.341684172427755 0 0 0
54 1 1.2945380689257349 9.395657951058471 3.9522074385770645 0 0 0
393 1 5.318039402998134 10.72624358636384 5.398694650450537 0 0 0
62 1 6.847270756695539 9.396745240122652 4.168175449882382 0 0 0
401 1 10.846218294577731 10.835875232894018 5.416589300982681 0 0 0
70 1 12.224501941107887 9.433567824169005 3.9834135244552553 0 0 0
78 1 17.585562539103712 9.597057076136814 4.137442011283974 0 0 0
409 1 16.28508517156036 10.948529776878233 5.497301624443123 0 0 0
86 1 23.126504926093425 9.559024250088846 4.151686397744887 0 0 0
417 1 21.702063577281653 10.865152075912105 5.461764596999152 0 0 0
94 1 28.478219107894667 9.634994265451567 3.9713844401361644 0 0 0
425 1 27.11370654473225 10.889167534948523 5.340109927527425 0 0 0
385 1 -0.029160249506311686 10.835944823715826 5.275177856909773 0 0 0
388 1 2.679681520800771 13.485813035268924 5.273863551591766 0 0 0
103 1 4.020491154525781 12.107903431793622 3.887723334190302 0 0 0
396 1 8.121123038255671 13.62034899421022 5.460522514041633 0 0 0
111 1 9.465319955983492 12.202834184136355 4.0982972241837485 0 0 0
404 1 13.562482290935325 13.562681336020665 5.4355639515071825 0 0 0
119 1 14.966270111698357 12.235660795368997 4.059184519382755 0 0 0
127 1 20.336605336936874 12.227123469145308 4.054288857281904 0 0 0
412 1 18.941792526791364 13.600919820975783 5.33629900725804 0 0 0
135 1 25.84288337630113 12.302830478991577 4.072092390894796 0 0 0
420 1 24.466519687761878 13.62857929990819 5.563582997527756 0 0 0
143 1 31.345970530639438 12.28212134241201 3.9343730914540678 0 0 0
428 1 29.87630827962039 13.647553593180756 5.335459471678796 0 0 0
102 1 1.3969935493162018 15.022308159268247 3.9324074670411555 0 0 0
151 1 4.089604128697007 17.633252194532044 4.151779604430136 0 0 0
441 1 5.436573782933738 16.1393793291544 5.343669471868255 0 0 0
110 1 6.841284255265237 14.854411802913862 3.9895051886202655 0 0 0
159 1 9.574948976823528 17.690426645772753 3.9920022738429757 0 0 0
449 1 10.948780385083706 16.351922969851092 5.247816137951389 0 0 0
118 1 12.267501927685148 14.823809890505887 4.044356454169461 0 0 0
167 1 14.864535091113476 17.59236687387531 4.042298858691528 0 0 0
126 1 17.589468083549928 14.999733758104512 4.024014915125045 0 0 0
457 1 16.254004579181178 16.254531313299342 5.527089307606867 0 0 0
175 1 20.55919867804007 17.605996539850363 3.9266401826929305 0 0 0
134 1 23.16035966975853 14.949150774461492 4.056474335042922 0 0 0
465 1 21.855741706966096 16.260919248487507 5.453138452233527 0 0 0
183 1 25.822586330391974 17.706246489386974 4.000040127954733 0 0 0
142 1 28.499832328840533 15.016117268866783 3.938529379959336 0 0 0
473 1 27.232396516692127 16.400495961573803 5.479060426302335 0 0 0
433 1 0.06059370795894381 16.257770364105507 5.327685068868793 0 0 0
191 1 31.37687626159669 17.656181573299236 4.075593056953481 0 0 0
150 1 1.328496806300864 20.2482016742372 4.058045304311712 0 0 0
436 1 2.7753404699105704 19.03051843944338 5.4281045940110575 0 0 0
158 1 6.7790054059953855 20.357080889625017 4.088735896802232 0 0 0
444 1 8.157651121604435 18.980208274301994 5.3314950203818885 0 0 0
166 1 12.282025343969897 20.33132651216608 4.024623353245228 0 0 0
452 1 13.564380951833726 19.00136222367548 5.403271754547918 0 0 0
174 1 17.704474828303134 20.33433032512333 4.000999121196204 0 0 0
460 1 19.0422148271903 18.90313784281255 5.274260178801803 0 0 0
182 1 23.048729049538537 20.40093870370533 3.955579182700257 0 0 0
468 1 24.416222540331386 19.094860859866834 5.290363287931562 0 0 0
190 1 28.417997013869854 20.4036423045699 4.127432606263948 0 0 0
476 1 29.908764033879542 19.038522059942142 5.454151844327798 0 0 0
481 1 0.02086170169880234 21.653477210231017 5.423906254294442 0 0 0
199 1 4.080346137870142 23.093326338837873 4.128477212700432 0 0 0
489 1 5.369921798561663 21.66407352457909 5.497985620621584 0 0 0
207 1 9.610857705952384 23.211154390024692 4.001872297085353 0 0 0
497 1 10.920105225313764 21.792069867696732 5.356863504384565 0 0 0
215 1 14.988697458147804 23.11029823424627 3.929411317505538 0 0 0
505 1 16.28562030285622 21.671918465757404 5.3524018143950665 0 0 0
223 1 20.42575981964706 23.092273006508737 4.116426135009574 0 0 0
513 1 21.71358758746934 21.696200961496615 5.412724203627195 0 0 0
231 1 25.716050694150564 23.04778040627273 4.126206028054161 0 0 0
521 1 27.193784114763005 21.718623661941926 5.401445417073409 0 0 0
239 1 31.209302740654497 23.11147915689538 4.134212660270289 0 0 0
198 1 1.2181622612886494 25.84948808171393 4.107418104279597 0 0 0
484 1 2.6768023934836638 24.461149890598918 5.498690611430168 0 0 0
206 1 6.780429894237309 25.955673301599354 4.013161607382476 0 0 0
492 1 8.19285825824947 24.55977934661755 5.27082987012184 0 0 0
214 1 12.318001390540873 25.799282257334408 3.9762634828080428 0 0 0
500 1 13.742970758905537 24.389624132957405 5.330456880629037 0 0 0
222 1 17.670382683280142 25.804774642139428 4.051594023830444 0 0 0
508 1 19.083393566908693 24.415761105355646 5.501813468533134 0 0 0
230 1 22.97994786164782 25.80840860247359 4.150240963155716 0 0 0
516 1 24.321801848927542 24.46359775914889 5.465243821733892 0 0 0
238 1 28.408185044614363 25.85594696434706 4.125033125841165 0 0 0
524 1 29.88488527904952 24.549038032020654 5.34691548833761 0 0 0
247 1 4.0045861179591995 28.521877705914555 4.062424884891362 0 0 0
537 1 5.283004985774974 27.218526621351955 5.491060458984507 0 0 0
255 1 9.461094434269793 28.527119321599564 4.022671608380096 0 0 0
545 1 10.944923352022379 27.127994057326276 5.247548260236736 0 0 0
263 1 14.981358059495665 28.620342760201147 4.003832486685951 0 0 0
553 1 16.27151841997628 27.196808098086198 5.2989695100750245 0 0 0
271 1 20.388522616853823 28.572082685973555 4.12852078339877 0 0 0
561 1 21.726274992026198 27.331306295322026 5.557146341515687 0 0 0
279 1 25.803477398838282 28.578370042561193 4.041565173951471 0 0 0
569 1 27.08783098438147 27.213971463731934 5.3546459886629565 0 0 0
529 1 32.58946584346817 27.160159185072864 5.401119769580549 -1 0 0
287 1 31.270781193002982 28.511661410506353 4.034741047309915 0 0 0
289 1 32.53901624772431 32.58221436600273 5.488640347316227 -1 -1 0
246 1 1.3199616578809392 31.28674351831016 4.056273858891284 0 0 0
532 1 2.6170062220435573 29.90744845238681 5.336643546150219 0 0 0
297 1 5.301374014358596 0.0008163804302654398 5.433063711056772 0 0 0
254 1 6.658632904128788 31.19514317970256 4.125818490922681 0 0 0
540 1 8.080690434246636 29.825696082966687 5.430010533638424 0 0 0
262 1 12.209775602713233 31.18926291627111 4.038946083716693 0 0 0
548 1 13.582436809179743 29.828333342208495 5.444372495537139 0 0 0
270 1 17.66206298062559 31.31546870076344 4.044272455823171 0 0 0
556 1 19.011042029381592 29.922601653558793 5.4278862294689585 0 0 0
321 1 21.69784052316545 -0.027406255149863057 5.264003511081095 0 0 0
278 1 23.114460070012623 31.254610084350492 3.9752949946015326 0 0 0
564 1 24.52600705223177 29.944345066554046 5.498585362714835 0 0 0
329 1 27.136194548953753 0.08574859208654573 5.246289282903356 0 0 0
286 1 28.648232801696565 31.40943283572466 4.006379986156396 0 0 0
572 1 29.89142868449149 29.855332214312003 5.335327731291408 0 0 0
291 1 2.7127451234736872 -0.0023638237517708644 8.194852841259573 0 0 0
293 1 1.3629743327472437 1.310060242588786 6.765038941101037 0 0 0
295 1 4.04894740969492 1.2914542898119243 9.625292167779373 0 0 0
298 1 5.357231430236956 2.656273770105126 8.201627308331341 0 0 0
299 1 8.124606441867986 -0.017139931229498317 7.972659245382332 0 0 0
301 1 6.748435416722196 1.395073505883356 6.7101427986138775 0 0 0
303 1 9.514270189793722 1.3722383372047673 9.461394153615936 0 0 0
306 1 10.852583346458552 2.658517384721632 8.075190524066608 0 0 0
309 1 12.165323981369333 1.3265539179236723 6.703655813575321 0 0 0
311 1 14.89604730656146 1.2773026531029217 9.439219794455914 0 0 0
314 1 16.144922679327436 2.7982081907086984 8.164307316330383 0 0 0
317 1 17.673966403236285 1.3943494831406247 6.929179644287136 0 0 0
315 1 19.04377300934087 32.605852273022464 8.25271020262911 0 -1 0
319 1 20.476700151283392 1.3763730985719718 9.518308763116679 0 0 0
322 1 21.76894604571488 2.7576524283251382 8.027360085452157 0 0 0
325 1 23.081676256310725 1.2780220384964027 6.676406299828873 0 0 0
323 1 24.504763345478988 0.08104079479024216 8.187638154676241 0 0 0
327 1 25.887774575507994 1.407249196346177 9.435015514504181 0 0 0
330 1 27.274651368292933 2.7108995559817117 8.04173531914052 0 0 0
333 1 28.60412995317935 1.3149444978044786 6.663485767016298 0 0 0
290 1 32.594187471261215 2.582509766994376 8.013969174949564 -1 0 0
335 1 31.317741829702474 1.2930333756245047 9.533774768559704 0 0 0
294 1 1.3233303207831812 3.85753870842587 9.53789325566453 0 0 0
339 1 2.675320769669087 5.216988956477909 8.1673834035231 0 0 0
296 1 4.056592437218789 4.053312920248994 6.710439141154448 0 0 0
302 1 6.747696116969108 4.039696872430762 9.496170438510589 0 0 0
347 1 8.059244672318613 5.359615493495104 8.062224784854482 0 0 0
304 1 9.48652185074721 4.134583282130153 6.74179821667811 0 0 0
310 1 12.19129788259836 4.019806130712282 9.45748335980916 0 0 0
355 1 13.492069804176591 5.500409822953851 8.26355090867346 0 0 0
312 1 14.761773767041307 4.16596664687392 6.8477978180658825 0 0 0
318 1 17.61511194187679 4.0485493774415815 9.577143521769747 0 0 0
320 1 20.382568305152315 4.145524891905268 6.753737344379021 0 0 0
363 1 18.977199932048045 5.437616107865948 8.138542437222993 0 0 0
326 1 23.021409556124798 3.967186117766589 9.368845282131188 0 0 0
328 1 25.842004587108732 3.9494766789777946 6.707268519237163 0 0 0
371 1 24.4589362922433 5.275773463398149 8.14843386697807 0 0 0
334 1 28.45400912179775 4.079239928352936 9.471582655155695 0 0 0
336 1 31.214741046918192 3.9984407005777856 6.757499301746224 0 0 0
379 1 29.837305103094536 5.386562954971642 8.203998782321248 0 0 0
338 1 32.52475011002046 7.996302524736441 8.144905620084163 -1 0 0
341 1 1.2701170932732475 6.609387965384832 6.817333755037604 0 0 0
343 1 4.01822696807941 6.666020947120972 9.381378882019204 0 0 0
346 1 5.368087591948703 8.020935499512278 8.121123263965202 0 0 0
349 1 6.788145187755772 6.71271397288379 6.750437688694883 0 0 0
351 1 9.455937412966264 6.691531909431728 9.47856901284888 0 0 0
354 1 10.816730341195997 8.12973517855891 8.172644035468998 0 0 0
357 1 12.210742611258746 6.885948958644549 6.733259474968498 0 0 0
359 1 14.927660267682992 6.776863233381409 9.519539102112766 0 0 0
362 1 16.352224297572214 8.097643318358747 8.16987188286114 0 0 0
365 1 17.68943970335851 6.816013024475415 6.702650019696986 0 0 0
367 1 20.352891536005444 6.794008638375023 9.41298691311055 0 0 0
370 1 21.78298872143706 8.15980148296117 8.047460518855155 0 0 0
373 1 23.127615299592083 6.699143392690561 6.72736106316147 0 0 0
375 1 25.792489773862503 6.709598364055045 9.588933370496896 0 0 0
378 1 27.085469892712595 8.077829250105815 8.108879334605263 0 0 0
381 1 28.537280736911942 6.790223031196518 6.728363522640425 0 0 0
383 1 31.225243149070067 6.682140157551479 9.605216615555094 0 0 0
342 1 1.258605441157648 9.457495002872697 9.39974547195259 0 0 0
387 1 2.550901541805059 10.897750226786222 8.11127115507702 0 0 0
344 1 3.9771370964761914 9.476436953559556 6.877806494129088 0 0 0
350 1 6.812034979977524 9.36266938692725 9.349826170208944 0 0 0
395 1 8.034976186603654 10.730886667519053 7.961853494508529 0 0 0
352 1 9.525794151304991 9.370284533675688 6.7073719214179 0 0 0
358 1 12.230676254328236 9.43661767387965 9.522924573442964 0 0 0
403 1 13.599323524577855 10.837086012042477 8.137170730730507 0 0 0
360 1 14.913029856057273 9.450084361908113 6.849732976863884 0 0 0
366 1 17.727065074699897 9.501267288695434 9.406508106112653 0 0 0
368 1 20.270322651743037 9.590457165572275 6.7850281627573805 0 0 0
411 1 19.120302723391802 11.084001824087787 8.174611100506166 0 0 0
374 1 23.071467359942055 9.4612942229309 9.544407653511591 0 0 0
376 1 25.76691073192624 9.501776634705223 6.68403610037146 0 0 0
419 1 24.51258444601284 10.815887620520531 8.18437979738084 0 0 0
382 1 28.527555697083272 9.503419676269393 9.378116810203016 0 0 0
384 1 31.24036778800899 9.494529426251301 6.6723393291347275 0 0 0
427 1 29.897138962598994 10.797097809947754 8.062621385451683 0 0 0
389 1 1.2404167386513143 12.22691401550918 6.736998906358589 0 0 0
391 1 3.995980916337534 12.20507115668858 9.495347030754193 0 0 0
394 1 5.335187857028852 13.538980797962727 8.16633996135253 0 0 0
397 1 6.695212917103313 12.247248420788031 6.7610249414283885 0 0 0
399 1 9.407227229243643 12.014736936739148 9.434423351310773 0 0 0
402 1 10.844087452746619 13.486311118126778 8.173688675662731 0 0 0
405 1 12.15565634484504 12.162379122462951 6.7395698314891455 0 0 0
407 1 14.81236638833604 12.136714411989445 9.652499687703703 0 0 0
410 1 16.09648326739957 13.577204144005849 8.245794042174667 0 0 0
413 1 17.685613860526598 12.288845483111855 6.754318684657849 0 0 0
415 1 20.318935649346734 12.296789898700215 9.66343975140392 0 0 0
418 1 21.646207938383824 13.481635036291726 8.226152420473166 0 0 0
421 1 23.136061075982074 12.221123251299982 6.83335602144577 0 0 0
423 1 25.713076199056953 12.261985893509726 9.457036588407368 0 0 0
426 1 27.14865878034976 13.641226067338568 8.122260942046704 0 0 0
429 1 28.476526521985804 12.230230443535703 6.815954303140304 0 0 0
386 1 32.51764284676112 13.554191970338616 8.090126165939283 -1 0 0
431 1 31.260438697533875 12.198497803729126 9.419165670838314 0 0 0
390 1 1.3233836401066779 14.885050971561181 9.444986058036575 0 0 0
435 1 2.7307484168791274 16.234894110406884 8.085189048191529 0 0 0
437 1 1.2722739640226393 17.645320194753637 6.6939520282606715 0 0 0
392 1 4.039149638839104 14.825638170808212 6.713646694097908 0 0 0
439 1 4.053915258165557 17.599202195787342 9.52141605199256 0 0 0
398 1 6.675728396921963 14.958231256074981 9.376123281885036 0 0 0
443 1 8.113027833361416 16.241529716597157 8.105741712536933 0 0 0
445 1 6.667521164378812 17.677506537234922 6.661830694921625 0 0 0
400 1 9.562953347391973 14.93346476157695 6.839932209488111 0 0 0
447 1 9.52448792262884 17.665595162537183 9.406969762063579 0 0 0
406 1 12.170902362569516 14.888550783292134 9.499376273346549 0 0 0
451 1 13.458290763679301 16.316539080341123 8.273684494078653 0 0 0
453 1 12.216099524580956 17.653824223102912 6.729727167112701 0 0 0
408 1 14.758073434588814 14.969438600136119 6.897764282595349 0 0 0
414 1 17.548759211917435 14.930329049363701 9.495158430952255 0 0 0
455 1 14.9426364474245 17.63853333080794 9.499382700057613 0 0 0
461 1 17.724416387635223 17.616437176034033 6.766395184584166 0 0 0
416 1 20.37422612689308 14.893016388885114 6.758719458817439 0 0 0
459 1 18.974591049376833 16.22298223867838 8.134609076055954 0 0 0
463 1 20.331241273626503 17.68573203944905 9.428243493279979 0 0 0
422 1 22.954736499632556 14.876250698186393 9.600435237194954 0 0 0