LAMMPS data file via write_data, version 19 Nov 2024, timestep = 60000, units = metal

1728 atoms
1 atom types

-0.008053802428531043 32.58805380242825 xlo xhi
-0.008053802428531043 32.58805380242825 ylo yhi
-0.008053802428531043 32.58805380242825 zlo zhi

Atom Type Labels

1 Si

Masses

1 28.0855

Atoms # atomic

2 1 0.11332751972710367 2.784290476104716 2.7253847598743137 0 0 0
3 1 2.770865604796979 32.56017930259141 2.70515308835518 0 -1 0
5 1 1.4313894436707517 1.3494519583702047 1.3648355300524528 0 0 0
10 1 5.505907113641267 2.656886167051647 2.763991911763071 0 0 0
818 1 32.513517109358474 29.793633708962155 13.618595161451552 -1 0 0
13 1 6.876799135521282 1.3724365816793498 1.296857407991187 0 0 0
18 1 10.870327613542907 2.6344600624994166 2.73308289636783 0 0 0
21 1 12.207556817544468 1.3058031026446508 1.3181486284933215 0 0 0
26 1 16.24527608710984 2.7431662969064265 2.6725277555260893 0 0 0
29 1 17.6567109141732 1.312212511332934 1.2905261516331719 0 0 0
34 1 21.69560413424335 2.667314279173066 2.712030632571412 0 0 0
37 1 23.058139052511432 1.3525535506441109 1.3723903476103745 0 0 0
35 1 24.39987414400081 32.58185639969556 2.746844164635481 0 -1 0
858 1 27.09615365167027 29.701920344503765 13.611401136528004 0 0 0
42 1 27.06513912561097 2.7518875011612876 2.696505771292943 0 0 0
45 1 28.50143789954701 1.3749173662232843 1.3762393276305092 0 0 0
43 1 29.81598647616755 0.030543947682628792 2.7728445373913613 0 0 0
44 1 29.886356314954494 2.686259872127493 0.02865779870722778 0 0 0
49 1 32.55036828436028 5.3901377277959694 0.026718176858189686 -1 0 0
51 1 2.736753556215873 5.310238304932057 2.689329008694804 0 0 0
8 1 4.137245099590154 3.9937343003361523 1.3657882829957226 0 0 0
59 1 8.153740478188684 5.417031249927254 2.6648672585058297 0 0 0
16 1 9.503524676353111 4.011960483555489 1.3175160746509884 0 0 0
862 1 28.34643965453298 31.1087326017073 14.915908426814182 0 0 0
67 1 13.447557851633812 5.503989348906225 2.7168420415285053 0 0 0
24 1 14.820210753502758 4.003667914767293 1.3023838659650062 0 0 0
32 1 20.39651258661852 4.035262814599188 1.3810034962889464 0 0 0
75 1 19.012719488303386 5.361741402093951 2.6577699665839627 0 0 0
40 1 25.806136908625692 4.132524781786464 1.2743189287699428 0 0 0
83 1 24.346750558976126 5.478732199847438 2.7563572185712237 0 0 0
850 1 21.733649513832795 29.855707884219665 13.640319067597963 0 0 0
48 1 31.245309637146985 4.094004384010637 1.3602315502586502 0 0 0
91 1 29.821401576762895 5.348916392981984 2.807730068544296 0 0 0
50 1 32.54707353718974 8.136664397750591 2.8713862499956946 -1 0 0
52 1 2.62761893916745 8.10804876733714 0.006992419333970378 0 0 0
53 1 1.3116430342138763 6.7439466172872775 1.4749281989081795 0 0 0
58 1 5.3734234109370815 8.144750789005917 2.7266167207604446 0 0 0
60 1 8.173822564921801 8.144839025663558 0.032929353545171014 0 0 0
61 1 6.794027978147714 6.823489022491815 1.3966362413918512 0 0 0
66 1 10.91812942878527 8.23306299239695 2.5419619280377903 0 0 0
854 1 23.08230844774624 31.187552838030886 15.02573010400268 0 0 0
69 1 12.16923378954544 6.789244874840956 1.212368082979305 0 0 0
74 1 16.308424486250026 8.162134520814652 2.6608199053386743 0 0 0
77 1 17.71615654169758 6.815868011237255 1.2168830884201347 0 0 0
1132 1 19.013710070306164 29.88489423788002 16.252450891165964 0 0 0
82 1 21.759833205129954 8.173114934644397 2.6296970884465383 0 0 0
85 1 23.12348574928212 6.739352615687544 1.3179202750236363 0 0 0
90 1 27.138323590302317 8.10481138228238 2.721389017422857 0 0 0
93 1 28.494676007093773 6.757856113149137 1.3930496178992227 0 0 0
92 1 29.788428095284097 8.142711866198665 0.09704316291144346 0 0 0
99 1 2.7100895613145863 10.935157434935507 2.799949450994335 0 0 0
56 1 3.9041036021300037 9.535253375117664 1.430042482219413 0 0 0
107 1 8.141130729706228 10.893215764626936 2.761574371258652 0 0 0
64 1 9.515471851955775 9.547556110422514 1.338938756321968 0 0 0
115 1 13.66456810548882 10.873311411341172 2.638328847550088 0 0 0
72 1 14.926699104294206 9.490797227423576 1.2078893949925282 0 0 0
603 1 18.950058902664782 32.463773058021424 13.546217901841967 0 -1 0
80 1 20.396432649379175 9.572455948805189 1.212888562847182 0 0 0
123 1 18.9139195059592 10.932916452411574 2.5413850658159927 0 0 0
842 1 16.241104987748358 29.870807874146184 13.718624623091712 0 0 0
88 1 25.805625323192015 9.391691438023754 1.3599799814411582 0 0 0
131 1 24.540507288042434 10.940610552892748 2.783055276344357 0 0 0
96 1 31.398308976819333 9.459136250284246 1.3480302904576877 0 0 0
139 1 29.942383936857635 10.809426792611319 2.5791482021468233 0 0 0
101 1 1.359967503809543 12.243320696318069 1.3139342679673878 0 0 0
106 1 5.483086268094535 13.55598037732489 2.696077244099701 0 0 0
104 1 4.095620497802671 14.980917202617242 1.3942830625256324 0 0 0
846 1 17.62348340156659 31.23145088737174 15.021349929517145 0 0 0
109 1 6.814707097390801 12.171318638042305 1.3568595260383265 0 0 0
114 1 10.830353967004863 13.536243453937303 2.6576395462543947 0 0 0
117 1 12.144595248030134 12.089837252758903 1.2307963876650516 0 0 0
122 1 16.297251495302536 13.531454349615043 2.5621013001513737 0 0 0
125 1 17.586850974531902 12.188053357476816 1.1107297047296345 0 0 0
595 1 13.575688075846715 -0.0004649592621817078 13.628464838833185 0 0 0
130 1 21.754977936547018 13.483924623866647 2.628633845699152 0 0 0
133 1 23.150302368328614 12.124793983709125 1.3368717563014083 0 0 0
132 1 24.4979917034177 13.629313073053549 0.1274269290036954 0 0 0
138 1 27.2596936148923 13.608915333913908 2.6884097286572874 0 0 0
141 1 28.606940263810138 12.217295048636515 1.3601435391507637 0 0 0
98 1 0.03718743304212069 13.478744322925579 2.6959918605824167 0 0 0
838 1 12.204159299244774 31.267683849725397 15.011120065595227 0 0 0
147 1 2.7944182882277575 16.299511709316697 2.7856150792250323 0 0 0
149 1 1.402286621740861 17.632191837153773 1.3883092364811338 0 0 0
834 1 10.75209908635586 29.896120461227348 13.686855189261964 0 0 0
155 1 8.154860769090533 16.28263598162656 2.7555893646631424 0 0 0
157 1 6.793447875587954 17.652375663096617 1.351170457832987 0 0 0
112 1 9.522476257413269 14.909284287764894 1.3578823873219252 0 0 0
161 1 10.87051280910291 16.273257122441844 0.0808628647925624 0 0 0
163 1 13.65708435401646 16.231237642466233 2.731283409470863 0 0 0
165 1 12.225663854239004 17.649662703526804 1.4246838275021123 0 0 0
120 1 14.870493759307555 14.953903631994464 1.2767556999740508 0 0 0
1116 1 8.037624170578841 29.97755455289051 16.21299627015915 0 0 0
173 1 17.588703167161537 17.601185589000345 1.319214972513217 0 0 0
128 1 20.334250581925126 14.910058737970441 1.3209224577648966 0 0 0
171 1 18.974623694389496 16.293458994110438 2.7061794891513475 0 0 0
830 1 6.673734615528454 31.29949460401207 14.781435569156505 0 0 0
181 1 23.03549590018229 17.543793952670402 1.2662178731629097 0 0 0
136 1 25.846017923774813 15.002615148593112 1.4437373245508 0 0 0
179 1 24.38074212079752 16.262105335167927 2.6837060758140625 0 0 0
189 1 28.507957321051748 17.556989617045016 1.3595315519246687 0 0 0
144 1 31.28960760623524 14.931354217273839 1.41448271566474 0 0 0
187 1 29.837980007687054 16.27095805430915 2.699502809955295 0 0 0
146 1 32.542876065997966 18.87368325973783 2.7103376421415524 -1 0 0
152 1 3.990746208293197 20.31107295542609 1.2783902908434792 0 0 0
154 1 5.3894386634618545 19.0739800783166 2.6292049770220043 0 0 0
156 1 8.102614624869702 19.14404165882985 0.03896350903227466 0 0 0
160 1 9.527118826810538 20.425731028650958 1.3820910517913605 0 0 0
162 1 10.88195226952963 19.046132419458882 2.809305321958904 0 0 0
873 1 5.355289772904919 0.049325304232631595 16.2696222962071 0 0 0
168 1 14.898959755865809 20.419825576747197 1.3527942427172202 0 0 0
170 1 16.23329227419982 19.006485864093715 2.696642622796787 0 0 0
826 1 5.398591507145822 29.854451757923147 13.49788680374824 0 0 0
176 1 20.40459794161309 20.370535515867253 1.2968692578813867 0 0 0
178 1 21.71762145103475 19.048572152184082 2.620783614111374 0 0 0
180 1 24.506503147229083 18.919550745509753 0.03463682428184585 0 0 0
184 1 25.749920851337844 20.42364576168172 1.4554186922995118 0 0 0
186 1 27.100228515733626 18.975158201849702 2.6746978529589924 0 0 0
192 1 31.156422868878614 20.29272286408751 1.3712602829468294 0 0 0
195 1 2.735185328375979 21.656412019871418 2.6657838412921233 0 0 0
197 1 1.4055262160305944 23.020467998685387 1.310982181258627 0 0 0
203 1 8.132115222094663 21.71794829635003 2.6817422684219543 0 0 0
205 1 6.810601619564711 23.105461520029806 1.3423136206661945 0 0 0
579 1 2.7114625102708714 0.035139356238289565 13.674495048247357 0 0 0
211 1 13.484848464172089 21.83206828418498 2.683850067210711 0 0 0
213 1 12.201821548542483 23.12415268836303 1.2971115747628066 0 0 0
217 1 16.279706331454612 21.75568009314449 0.009967031101904448 0 0 0
221 1 17.70108822795173 23.024551719796335 1.31646220551829 0 0 0
219 1 19.015151954661448 21.734993597287914 2.6492285706999175 0 0 0
822 1 1.208797537572779 31.229511739218765 14.898171488894022 0 0 0
229 1 23.06707424499874 23.079283693191886 1.318795928851572 0 0 0
227 1 24.457667428282196 21.842719500504185 2.7081011759072173 0 0 0
233 1 27.06960169230659 21.692824699010444 0.09711031216221293 0 0 0
237 1 28.398928671231456 23.166811963658574 1.4023502164900254 0 0 0
235 1 29.799625804248244 21.710035698340434 2.7972470904300795 0 0 0
194 1 0.034074503576561076 24.37245795357691 2.6108172799534968 0 0 0
196 1 2.8635328741542994 24.397480636503314 0.03473182715291777 0 0 0
200 1 4.198370780380063 25.84191570677956 1.2969048505853336 0 0 0
202 1 5.397246693997109 24.34351345650463 2.7128162658959556 0 0 0
208 1 9.443106721215146 25.769429861391696 1.3819644023098316 0 0 0
210 1 10.818435599971997 24.447579311044606 2.6742812075693436 0 0 0
1105 1 32.50632263180537 27.21981173944895 16.28462489672507 -1 0 0
216 1 14.883535286193208 25.841841190553836 1.3105715463651633 0 0 0
218 1 16.317432921872445 24.404270248419643 2.584230090693736 0 0 0
224 1 20.283704785294606 25.86877263118007 1.3562017742622712 0 0 0
226 1 21.787510027784347 24.490811633726075 2.6978122902023585 0 0 0
232 1 25.711144157782396 25.849617308648646 1.328805853890045 0 0 0
234 1 26.908590164341543 24.459670212837928 2.7127931693269303 0 0 0
236 1 29.78242497068888 24.4414546178253 0.029150148192129577 0 0 0
240 1 31.282854556777544 25.703465689209626 1.3777811679568472 0 0 0
243 1 2.7368154039307386 27.20423570208153 2.656596125618398 0 0 0
245 1 1.323551279503169 28.60125342635547 1.3599660234014666 0 0 0
251 1 8.017937221617958 27.087146783736145 2.7158461868688244 0 0 0
253 1 6.774919395337313 28.427732456313297 1.3270866639664964 0 0 0
259 1 13.45033409079976 27.180458563959426 2.7057805500034178 0 0 0
261 1 12.0369987794415 28.459232291172448 1.344401099652592 0 0 0
859 1 29.888792468390015 27.23027661561221 13.547799407078923 0 0 0
269 1 17.543699281359174 28.586312509868236 1.2538027825209643 0 0 0
267 1 18.876539974681922 27.207244669291306 2.6370199417807885 0 0 0
277 1 23.030135604811566 28.527780750607654 1.3222522802916656 0 0 0
275 1 24.34640315882329 27.18663719794015 2.732965057605525 0 0 0
285 1 28.43090652170122 28.47886019906957 1.475714753905154 0 0 0
283 1 29.9145159863635 27.11844384508174 2.7659037559764923 0 0 0
242 1 32.54725398737458 29.96133121240031 2.794838280495177 -1 0 0
863 1 31.128663399180773 28.5616104624754 14.999288301344238 0 0 0
248 1 4.159452812321539 31.29219556148232 1.3026797688202338 0 0 0
250 1 5.472017694971157 29.918513582485616 2.5798076178602014 0 0 0
11 1 8.192552383687113 32.49473505034037 2.727860080346682 0 -1 0
851 1 24.442408401706878 27.096750089485056 13.406840318081523 0 0 0
256 1 9.50079154724644 31.16172967152666 1.3155931500623228 0 0 0
258 1 10.799473713945167 29.90107719981172 2.7866983310564057 0 0 0
19 1 13.67156458857756 32.53315126122508 2.7085061932556798 0 -1 0
264 1 14.890163364015605 31.197783715279908 1.2388696036089544 0 0 0
266 1 16.231555258857775 29.916269059295697 2.68288527191738 0 0 0
27 1 18.913920162002032 0.03690599246854731 2.679083116174532 0 0 0
272 1 20.295037055472836 31.269001677065887 1.3147940131522098 0 0 0
274 1 21.71136510632378 29.907504898089886 2.7261749734412786 0 0 0
280 1 25.773983399180764 31.32391597573562 1.3687823652439373 0 0 0
282 1 26.95587003495281 29.825293233233275 2.8687689158708993 0 0 0
284 1 29.89677846973179 29.89596359352316 0.0345397183467803 0 0 0
288 1 31.22104731661549 31.270940919480427 1.3226714148985352 0 0 0
292 1 2.6692933921047275 2.7269759175085917 5.384257026776743 0 0 0
7 1 4.1066148172671655 1.3219460323737162 4.035108460303316 0 0 0
297 1 5.478804454443048 32.54019165508575 5.41976817875301 0 -1 0
300 1 8.165206293564687 2.696628175224164 5.469839579229194 0 0 0
15 1 9.444947216889698 1.326652482069954 4.018144006552221 0 0 0
305 1 10.771435373857727 0.027023946990996802 5.443158028364157 0 0 0
308 1 13.65226068746019 2.79131700653006 5.338143589779655 0 0 0
23 1 14.954113568889221 1.3284311017026593 3.9930345576537354 0 0 0
31 1 20.366359784834543 1.311651740671116 3.9810425841017985 0 0 0
316 1 19.0255419695773 2.6183780469978837 5.34167317882394 0 0 0
39 1 25.80098210805316 1.3799580429327536 4.052306576086331 0 0 0
324 1 24.362151028027245 2.6129032636489984 5.428363372253009 0 0 0
47 1 31.223490090137414 1.4364294885072868 4.051481745831713 0 0 0
332 1 29.72487586996604 2.73840506439524 5.50718343577971 0 0 0
6 1 1.360644843856818 4.112293683401652 4.1069623654907 0 0 0
337 1 32.5172877213796 5.4033142190119285 5.438001403207593 -1 0 0
345 1 5.496382820644667 5.3860501581661175 5.429754878271252 0 0 0
14 1 6.875622872657306 4.067683450355654 4.1387036721754225 0 0 0
353 1 10.84081540637872 5.512801514415102 5.3500175360896565 0 0 0
22 1 12.177553424765797 4.142131474564987 4.071080180812435 0 0 0
30 1 17.64095253358619 4.078678050181657 4.073501978483865 0 0 0
361 1 16.24658581291776 5.446154520956362 5.411209184324946 0 0 0
38 1 22.977599234803357 4.077624896764248 4.03243071068498 0 0 0
369 1 21.718875007572063 5.410816312036023 5.410430258754817 0 0 0
46 1 28.359593322423486 4.06887595661429 4.124519496766477 0 0 0
377 1 27.100702939876527 5.472591594362605 5.444482849137256 0 0 0
340 1 2.6588671168681963 8.152049221796267 5.423433849376394 0 0 0
55 1 4.033127237707642 6.738681416719878 4.121677495027922 0 0 0
348 1 8.156638954759778 8.17646346877613 5.359305759269975 0 0 0
63 1 9.507282847403584 6.944401658395816 3.909573983312025 0 0 0
356 1 13.710299294679245 8.132678951256231 5.329100282714896 0 0 0
71 1 14.978428440294342 6.758269566935539 4.019885582198165 0 0 0
79 1 20.38297011059056 6.76222318284123 4.033150942975 0 0 0
364 1 18.94847988147604 8.0559603539202 5.364156519102424 0 0 0
87 1 25.6319783780374 6.750212398222286 4.101223925940261 0 0 0
372 1 24.416178694300854 8.224790334544304 5.513907496915132 0 0 0
95 1 31.12502606898773 6.725061257670304 4.140820358065262 0 0 0
380 1 29.860215797270936 8.057841466249311 5.531564208631709 0 0 0
54 1 1.267304228726134 9.522969060409 4.071073368713899 0 0 0
393 1 5.361760258150157 10.914453560622976 5.523175802701639 0 0 0
62 1 6.6767823016602454 9.621888165417406 4.1086876116120035 0 0 0
401 1 10.886220624924462 10.837550853054926 5.423411767231657 0 0 0
70 1 12.235382318872146 9.516415829511061 3.9913810662276785 0 0 0
78 1 17.735214139986525 9.552316396293088 3.979092313487973 0 0 0
409 1 16.433832118125522 10.918441717241675 5.244919155321435 0 0 0
86 1 23.101794078901268 9.552742634845437 4.044131239461955 0 0 0
417 1 21.604615071752264 10.975456769525923 5.378866983413849 0 0 0
94 1 28.570118572646084 9.470399447071912 4.02256647058485 0 0 0
425 1 27.22042017488321 10.7466879583853 5.390368304379872 0 0 0
385 1 32.4988302995672 10.80601479870032 5.530074436497412 -1 0 0
388 1 2.602148031921504 13.535374615012358 5.351130980213998 0 0 0
103 1 4.077852203506152 12.245611596217607 4.0607516012402 0 0 0
396 1 8.09852169256734 13.514053789462285 5.469145808836288 0 0 0
111 1 9.518151926778465 12.274312662699812 4.094011120169788 0 0 0
404 1 13.588240974910807 13.524685071071206 5.391447682249712 0 0 0
119 1 14.916723872180587 12.213254506634614 4.010332701997626 0 0 0
127 1 20.272050823828955 12.247646638570552 3.990407300810602 0 0 0
412 1 19.021793296409992 13.681334424412942 5.336217140343276 0 0 0
135 1 25.941998629658592 12.232524019397555 4.1495237914747864 0 0 0
420 1 24.524942643694796 13.532882398366084 5.443743998111202 0 0 0
143 1 31.23447625980367 12.124761415381522 4.064191239450037 0 0 0
428 1 29.891241748955874 13.491768450509477 5.2893496665421225 0 0 0
102 1 1.3562744833922562 14.882345286559653 3.965192877009492 0 0 0
433 1 32.559917655530604 16.26724433414715 5.496624721879197 -1 0 0
151 1 4.213633913144331 17.62215767693026 4.149967494143113 0 0 0
441 1 5.596576233681378 16.20916416396593 5.480011954019644 0 0 0
110 1 6.874826654661643 14.886451413115765 4.053430468580399 0 0 0
159 1 9.492792997778174 17.649077313179898 4.165197470694277 0 0 0
449 1 10.873066297644753 16.33363136010791 5.499322840581301 0 0 0
118 1 12.217229409094223 14.990326743613954 4.153017416132586 0 0 0
126 1 17.658525557949464 14.882167660330419 3.898879806932886 0 0 0
167 1 14.89080831787577 17.73832045847693 4.047744921094391 0 0 0
457 1 16.322202374281908 16.299663603516553 5.340961847807028 0 0 0
175 1 20.514341655759907 17.61748027293525 4.0452242321953245 0 0 0
134 1 23.126918945652047 14.816129241011812 4.0172226979025325 0 0 0
465 1 21.864312916412484 16.269630252674908 5.373682568645789 0 0 0
183 1 25.741736830772787 17.628501492063567 4.0806305247221015 0 0 0
142 1 28.533273372725386 14.921636947305725 4.060614218524951 0 0 0
473 1 27.120370075677666 16.27926661399106 5.460537989447632 0 0 0
191 1 31.132045180905443 17.58990040892974 4.125084172502092 0 0 0
150 1 1.4089536980778372 20.238615980438713 3.9758561451433336 0 0 0
436 1 2.79158288687048 19.037923096080647 5.349161389845061 0 0 0
158 1 6.759796598308586 20.352121250240675 4.088170498343806 0 0 0
444 1 8.064787095167988 19.032377364406482 5.456014285866646 0 0 0
166 1 12.166054998185583 20.512708700178592 4.085605641167631 0 0 0
452 1 13.434028837763986 19.117707709510555 5.430054926300571 0 0 0
174 1 17.701970424892583 20.308342813089748 3.977114176287832 0 0 0
460 1 19.102412187213492 18.9077516021428 5.333412424937675 0 0 0
182 1 23.081061448344894 20.356124139851392 4.040480550434599 0 0 0
468 1 24.437353417201134 19.030534370926304 5.456210167025236 0 0 0
190 1 28.410608446774855 20.388846769237297 4.106932504018657 0 0 0
476 1 29.839481509363164 18.96943057264236 5.464551623839539 0 0 0
199 1 4.0529692207185155 22.979154660492767 4.105800882007978 0 0 0
489 1 5.530302499217922 21.709410604966763 5.502615183141715 0 0 0
207 1 9.353205327563051 23.05880127752492 4.115887260053213 0 0 0
497 1 10.816355565740672 21.83157441194321 5.4758315432807985 0 0 0
215 1 14.810179508112158 23.168597355277864 3.9568036985462522 0 0 0
505 1 16.265431637733982 21.786973432632166 5.25800210958118 0 0 0
223 1 20.41079095827936 23.138063270643784 4.174405485261425 0 0 0
513 1 21.736905097346245 21.635794049553493 5.391482988078276 0 0 0
231 1 25.720105780385914 23.047927423215434 4.130472427799273 0 0 0
521 1 27.114028374371895 21.68360613519864 5.518078528630204 0 0 0
481 1 32.53289429753318 21.599750580372845 5.336484740169175 -1 0 0
239 1 31.26398544769427 22.975088837763426 4.00947368262613 0 0 0
198 1 1.431152307543839 25.740408384386186 3.9706451504348257 0 0 0
484 1 2.6867356824543815 24.36427082198051 5.442985548464583 0 0 0
206 1 6.632657476613712 25.74811827563552 4.03855308221082 0 0 0
492 1 8.134618138730703 24.392366823091255 5.516606757781498 0 0 0
214 1 12.148131294510174 25.815329604736103 4.0781327140349095 0 0 0
500 1 13.53820373987645 24.49447575088803 5.377977066768878 0 0 0
222 1 17.539562137002324 25.81961488634813 4.0281634643134225 0 0 0
508 1 18.951898303759773 24.471290581183222 5.465415185279939 0 0 0
230 1 23.07314370635818 25.789198569855095 4.105390735061739 0 0 0
516 1 24.45076217047992 24.503782802019863 5.475189003237484 0 0 0
238 1 28.445475853131523 25.822836276210136 4.085139051765089 0 0 0
524 1 29.823915900060452 24.390064699002675 5.352629203135901 0 0 0
529 1 -0.00015872955940091668 27.085034526384046 5.346845835300994 0 0 0
247 1 4.091979153213524 28.601236303246736 3.9497505673128046 0 0 0
537 1 5.430196697406056 27.23175555029327 5.347609936051104 0 0 0
255 1 9.443950696831175 28.455693494609218 4.092492890366694 0 0 0
545 1 10.765344401662299 27.12362920045602 5.48630770652931 0 0 0
263 1 14.763383543301703 28.619357250696325 3.997236513630618 0 0 0
553 1 16.116382434604642 27.23681236686814 5.329040069326734 0 0 0
271 1 20.323409478740043 28.47754469958871 4.010916118593171 0 0 0
561 1 21.68745587155965 27.212547549887088 5.349999802361235 0 0 0
279 1 25.641730789102567 28.49150883191096 4.1781606463990935 0 0 0
569 1 27.174528623366886 27.21689824898099 5.406037075088432 0 0 0
287 1 31.142655767652347 28.468756753851462 4.124060025543108 0 0 0
289 1 32.569998327949534 32.58531924992133 5.373678160569517 -1 -1 0
246 1 1.3644080487729704 31.241934991425676 4.088965471085117 0 0 0
532 1 2.7836835991000974 29.902763901037176 5.370647691745918 0 0 0
254 1 6.786206376298409 31.195409532852995 3.967094235352358 0 0 0
540 1 8.164157881575008 29.82636408027646 5.47605787663702 0 0 0
262 1 12.200445847868185 31.229608320483866 4.069498571600986 0 0 0
548 1 13.539979972239546 30.005239327028086 5.465815106861057 0 0 0
313 1 16.237044373789818 0.055466115926066095 5.427960501230116 0 0 0
270 1 17.578093852317064 31.271577079493653 3.9685620727266264 0 0 0
556 1 18.989127673145404 29.83214409501837 5.3530644221662325 0 0 0
321 1 21.70427411620187 0.026719488630547517 5.437447983535246 0 0 0
278 1 23.09445334802108 31.260872094286135 4.07912274985359 0 0 0
564 1 24.367521290321456 29.886197615099373 5.5437379560210385 0 0 0
329 1 27.055911825602387 0.030984812317676358 5.582761004725277 0 0 0
286 1 28.351783125819313 31.30668518163027 4.078914640228869 0 0 0
572 1 29.68465413917028 29.87707261035354 5.364397318366885 0 0 0
290 1 0.0013858363189462705 2.6670178434331504 8.066663903442416 0 0 0
291 1 2.691440905863272 32.5636988284326 8.065068937994614 0 -1 0
293 1 1.34861096075056 1.3286077137661 6.689625452069687 0 0 0
295 1 4.071948359107967 1.3617185241542866 9.34789511987644 0 0 0
298 1 5.4953301010327555 2.75756126853395 8.083825187122851 0 0 0
301 1 6.8221434696461065 1.3652321478943836 6.83096869377831 0 0 0
303 1 9.543528641303832 1.411589887735502 9.574894878868406 0 0 0
306 1 10.85254497223033 2.8678607065482256 8.176951089077475 0 0 0
309 1 12.156020064614058 1.5911898380670835 6.668180781731051 0 0 0
311 1 14.922294238783913 1.409201469397125 9.557052230048217 0 0 0
314 1 16.3336625350091 2.654140082586364 8.116500725722535 0 0 0
317 1 17.665400944764535 1.3986556208094763 6.774109265643299 0 0 0
315 1 18.88098629249037 32.526245463867625 8.069430744221204 0 -1 0
319 1 20.270248866153363 1.1126008796269975 9.518083728612156 0 0 0
322 1 21.700655969510724 2.595623182569911 8.20192534366177 0 0 0
325 1 22.991676663674586 1.267609399843701 6.854371814481204 0 0 0
327 1 25.79064818138696 1.3403038397188722 9.580149869334036 0 0 0
330 1 27.135688565431806 2.7718375506573825 8.259174615313912 0 0 0
333 1 28.447038683285992 1.3251415823139057 6.900264407302811 0 0 0
331 1 29.84597642148068 32.50315869498656 8.153322733668007 0 -1 0
335 1 31.21338086735897 1.3412481070592102 9.398085587187289 0 0 0
294 1 1.4177579457663991 4.023019754581713 9.53105641438789 0 0 0
339 1 2.675881359730496 5.40609682772761 8.173334309710656 0 0 0
296 1 3.9833625600807365 4.026477075785379 6.7942955995737435 0 0 0
302 1 6.874984310169813 4.036889685618553 9.548204396604119 0 0 0
347 1 8.153384228474652 5.419451193611033 8.216866081301161 0 0 0
304 1 9.499911238422564 4.088151874351164 6.750667717551927 0 0 0
310 1 12.26645133365505 4.195386236987265 9.533113533557398 0 0 0
355 1 13.640071209889268 5.47436065209116 8.151013416001343 0 0 0
312 1 14.989305772246176 4.107466860351117 6.817067924579033 0 0 0
318 1 17.581863249461293 3.9893254620175225 9.559955971187197 0 0 0
320 1 20.346066580099194 3.938998476594038 6.696762651055963 0 0 0
363 1 18.990623993132015 5.305933667357199 8.107867549161345 0 0 0
326 1 23.044154675973065 3.9988300891577215 9.481800913529998 0 0 0
328 1 25.791974658098464 4.046821544484717 6.742478568387046 0 0 0
371 1 24.379803464226754 5.401188895818965 8.073526154260252 0 0 0
334 1 28.563931893713637 4.106507042774181 9.59244536437582 0 0 0
336 1 31.21842254687593 4.0232960892723755 6.769754818145206 0 0 0
379 1 29.89534061462194 5.4560909581433 8.206776751155726 0 0 0
338 1 32.53400869307651 8.160781571788554 8.36834352492301 -1 0 0
341 1 1.2953424433129594 6.707020404504941 6.858762084651108 0 0 0
343 1 4.040216060005826 6.763497473072684 9.502970151474209 0 0 0
346 1 5.459213676078598 8.114521313356072 8.100600935231661 0 0 0
349 1 6.917377755141061 6.7680176152184695 6.811486890342911 0 0 0
351 1 9.561636305924177 6.83617425088256 9.538953802745924 0 0 0
354 1 10.921338642803168 8.14051975521272 8.152378411553029 0 0 0
357 1 12.256395519556241 6.793261644980479 6.65325146156804 0 0 0
359 1 14.923672349760428 6.868551955427957 9.61915346823158 0 0 0
362 1 16.270948379970143 8.090656024021847 8.078274412905692 0 0 0
365 1 17.670923884465168 6.701261364932589 6.741715199976473 0 0 0
367 1 20.477097160569368 6.626283177891889 9.36529600961288 0 0 0
370 1 21.677409402467735 8.073382879009145 7.98788452974712 0 0 0
373 1 23.075534422516352 6.784850668142342 6.73151124017518 0 0 0
375 1 25.83703686757943 6.689149911937502 9.46662769518111 0 0 0
378 1 27.223243616949553 8.134492832722003 8.237907552311754 0 0 0
381 1 28.525421920314628 6.753807687851404 6.889816885978415 0 0 0
383 1 31.284303991020202 6.791310915221477 9.655582426045353 0 0 0
342 1 1.4499942629950162 9.578829806445865 9.624424541151877 0 0 0
387 1 2.716310062251174 10.88272394153207 8.151521404068161 0 0 0
344 1 4.0485060717782515 9.467742746922532 6.765142743739557 0 0 0
350 1 6.772165658026971 9.588743470642612 9.492831144510728 0 0 0
395 1 8.16227580484088 10.88313519586201 8.129729961343514 0 0 0
352 1 9.565152570101626 9.48933130748821 6.777247532756816 0 0 0
358 1 12.315412379760263 9.550538562495504 9.4283503279001 0 0 0
403 1 13.650715494849768 10.836328152213992 8.017543410905777 0 0 0
360 1 15.040926408777283 9.531876049541461 6.606652166339289 0 0 0
366 1 17.691425063786273 9.388116633658555 9.407660692655394 0 0 0
368 1 20.21734516999346 9.574823508678035 6.643792138990055 0 0 0
411 1 18.976272698690593 10.874537930233297 8.085560548078266 0 0 0
374 1 23.005198101196104 9.420874076770843 9.495421188028299 0 0 0
376 1 25.888903916888633 9.475920278703875 6.9533050217404435 0 0 0
419 1 24.4256235486766 10.772312549955114 8.148524334781987 0 0 0
382 1 28.62752285850773 9.499249894934605 9.474263926966294 0 0 0
384 1 31.220195712223095 9.406226186355381 6.896919170694802 0 0 0
427 1 29.93283472467814 10.904458415433476 8.164588779530316 0 0 0
386 1 -0.007868977275525765 13.565801026020475 8.166339154314686 0 0 0
389 1 1.2970146673582863 12.197293122621883 6.811948757277964 0 0 0
391 1 4.059711468525944 12.317929446932173 9.508624384868012 0 0 0
394 1 5.468144294319863 13.580101488694355 8.170790698117385 0 0 0
392 1 4.10833239689881 14.885786751933999 6.69570183791354 0 0 0
397 1 6.801600778648493 12.170787961573584 6.856351816772038 0 0 0
399 1 9.542708212565463 12.20650035541545 9.46655340355813 0 0 0
402 1 10.889827191374408 13.524730362791244 8.085267918767666 0 0 0
405 1 12.250550945673597 12.173722819051832 6.742731996095071 0 0 0
407 1 14.941505622498182 12.307538064005266 9.375138538253651 0 0 0
410 1 16.363275003520883 13.594073233054067 7.977902851187296 0 0 0
413 1 17.714277593000222 12.256061078386463 6.632966667776746 0 0 0
415 1 20.321368901603908 12.149779411422818 9.479735648122901 0 0 0
418 1 21.739214105352726 13.588678860223203 8.203016973704328 0 0 0
421 1 23.059651697775646 12.188846283252252 6.825384944320967 0 0 0
423 1 25.76793850872789 12.176390852197104 9.480752601848652 0 0 0
426 1 27.221742342144715 13.504491371338993 8.25862465154823 0 0 0
429 1 28.523388793690824 12.210459326907523 6.690815514451165 0 0 0
431 1 31.13488347186423 12.277807062424673 9.522124333735723 0 0 0
390 1 1.3700548472395733 14.93804246420968 9.576904210598867 0 0 0
435 1 2.773434733650068 16.275795993724657 8.141588075121504 0 0 0
437 1 1.430286789276261 17.619093067504554 6.6525082357800605 0 0 0
439 1 4.095863218212748 17.64367074453346 9.463323601582122 0 0 0
398 1 6.801930074286953 14.963850950245073 9.58484458741358 0 0 0
443 1 8.17873300385307 16.149732518087113 8.202239199772965 0 0 0
445 1 6.876712717837171 17.65447839541451 6.865499451434466 0 0 0
400 1 9.44151108862876 14.843881599895642 6.800119777624074 0 0 0
447 1 9.528522649042825 17.675830960264594 9.464596682317499 0 0 0
406 1 12.104948683412882 14.850683376994468 9.563272581529493 0 0 0
451 1 13.470752266072273 16.269001036322436 8.205181417169372 0 0 0
453 1 12.199757589736178 17.68879987753594 6.859170822031155 0 0 0
408 1 14.812008076917543 14.943694387289064 6.7889392095861485 0 0 0
414 1 17.776948410160205 14.951653541507701 9.371525971972563 0 0 0
455 1 15.005765387640716 17.793031685263553 9.530845129356244 0 0 0
461 1 17.63983196266998 17.63209042105055 6.6716364406615245 0 0 0
416 1 20.478599715158055 14.946968074005596 6.71982284362576 0 0 0
459 1 19.116475731203597 16.309757950673813 8.05647310707708 0 0 0
463 1 20.384429806700297 17.644320779412006 9.57828772959032 0 0 0
422 1 23.092674327945844 14.875208799239244 9.539526692045174 0 0 0
469 1 23.103995116448342 17.61130784918024 6.7710681018980265 0 0 0
424 1 25.842442183743486 14.921635934713622 6.821508248563005 0 0 0
467 1 24.4547464534597 16.272336472569506 8.190117702649447 0 0 0