LAMMPS data file via write_data, version 19 Nov 2024, timestep = 60100, units = metal

1728 atoms
1 atom types

-0.02835336875555683 32.60835336875519 xlo xhi
-0.02835336875555683 32.60835336875519 ylo yhi
-0.02835336875555683 32.60835336875519 zlo zhi

Atom Type Labels

1 Si

Masses

1 28.0855

Atoms # atomic

2 1 0.06898149826536867 2.7692086616983564 2.7646545375592013 0 0 0
3 1 2.8262640186609156 0.01545556541709007 2.5678570205660325 0 0 0
5 1 1.3991812833855388 1.4285707838888118 1.348209987420016 0 0 0
1187 1 24.462935281019586 16.285056268918844 13.523041665800447 0 0 0
10 1 5.427491160894804 2.712415842116034 2.7325097126956437 0 0 0
11 1 8.144117329606548 0.02220066244905871 2.7054282078443057 0 0 0
1313 1 10.790211360808902 16.280200618599093 16.14244317054078 0 0 0
13 1 6.726761410188504 1.3202577010250263 1.341680568473523 0 0 0
18 1 10.802462996233661 2.6483108243758204 2.7032918686447585 0 0 0
20 1 13.702692247764539 2.803429004083374 0.06145781220855939 0 0 0
21 1 12.262086212371317 1.3341245255504524 1.4126840110272585 0 0 0
26 1 16.266098294753718 2.784884110489615 2.68665243174199 0 0 0
29 1 17.568268370385066 1.4127150812162312 1.2652415958864769 0 0 0
27 1 18.85040217815289 0.10241543160533036 2.666481169109149 0 0 0
329 1 27.103366806370385 -0.024201610502210258 10.799182270519923 0 0 0
34 1 21.73319726394588 2.818495787873183 2.649928189137882 0 0 0
37 1 22.9985195779974 1.3182685790644741 1.341152198938058 0 0 0
36 1 24.514276888160804 2.6648646071131386 0.10995277547423492 0 0 0
41 1 27.156081576267294 0.026584390094869233 0.04205694072938808 0 0 0
42 1 27.199014789713004 2.726611591432025 2.6975975680692246 0 0 0
45 1 28.62018239042572 1.4120009853377482 1.3215632624983045 0 0 0
51 1 2.6622410189136185 5.367357344624297 2.6865227457123977 0 0 0
8 1 4.085970683057636 3.9837853077483683 1.2429007525002063 0 0 0
321 1 21.85084047551138 0.10776304557113292 10.66215610069644 0 0 0
59 1 8.140087932901075 5.365606567240042 2.614137898260805 0 0 0
16 1 9.510059165723161 4.043923148226399 1.2487589765905445 0 0 0
65 1 11.010619251606633 5.368328652502678 0.08857567576821371 0 0 0
67 1 13.550523693088751 5.426028841519909 2.7992779584397094 0 0 0
24 1 15.046162773133423 4.2281993101165725 1.3505005394448366 0 0 0
1193 1 27.165429359521973 16.281024657983092 10.85622673049242 0 0 0
32 1 20.412106294773302 4.167854110365126 1.2235258075530824 0 0 0
75 1 19.070141720644987 5.558853160400119 2.6560949606683395 0 0 0
187 1 29.78899189942971 0.08456921824907937 8.146988719211782 0 0 0
40 1 25.75280589842717 4.077595950276393 1.4418609240591829 0 0 0
83 1 24.412938593854072 5.4617648029433665 2.67392014362037 0 0 0
89 1 27.107859225705226 5.3964862182471816 0.06097197602183134 0 0 0
48 1 31.328764552974533 4.176693849078364 1.4836682349336772 0 0 0
91 1 29.91052487270278 5.495611926397365 2.786700186368459 0 0 0
50 1 32.4953590605208 8.257962502840211 2.719558603922602 -1 0 0
171 1 19.056524530501413 0.01105210862481698 7.882386344472018 0 0 0
53 1 1.307877881425688 6.847120936094748 1.4744155649830593 0 0 0
56 1 4.196832218625541 9.59757218077852 1.3423531310025272 0 0 0
58 1 5.467324390557496 8.109179170497937 2.6597328981650232 0 0 0
163 1 13.657051378814362 -0.019804301554792403 8.083383307174977 0 0 0
61 1 6.7726850526716875 6.722529300327015 1.267170603886914 0 0 0
64 1 9.43209006533548 9.507744281048488 1.2574878333566433 0 0 0
66 1 10.74123118436788 8.188412016153116 2.6895841142463173 0 0 0
68 1 13.638897205576388 8.151074874121944 -0.02424527188024067 0 0 0
69 1 12.270918410192797 6.749126373867261 1.379350725222793 0 0 0
72 1 14.87601383016519 9.515310342626666 1.4329636269312105 0 0 0
74 1 16.25831004531088 8.16880804449512 2.725948782521647 0 0 0
77 1 17.76089787742821 6.913931166991254 1.389606093844734 0 0 0
80 1 20.233876688319224 9.4478179181633 1.387859280653658 0 0 0
82 1 21.784358593951836 8.161782385074977 2.6975605392815707 0 0 0
85 1 23.165019071593704 6.831325815928234 1.3034038892277306 0 0 0
145 1 32.546599353794534 0.005804119174570133 5.4194920144834855 -1 0 0
88 1 25.825971316297217 9.596421067406775 1.3488166356236935 0 0 0
90 1 27.129292678122766 8.229395243379992 2.602335820004055 0 0 0
93 1 28.533929545982172 6.723973627931928 1.409840274459343 0 0 0
96 1 31.255051732069965 9.466026729519815 1.249871050880773 0 0 0
99 1 2.831406987781754 10.829545765314322 2.7061139538276224 0 0 0
101 1 1.4166197350516132 12.355950228119964 1.4840785683656004 0 0 0
169 1 16.289186847655277 -0.018067572592812553 5.328891822191041 0 0 0
107 1 7.962222263832578 10.72746355608531 2.6703501904815528 0 0 0
109 1 6.8136745430963215 12.239095327607156 1.2658524940708622 0 0 0
115 1 13.602089283719751 10.940614702202211 2.802235753464649 0 0 0
117 1 12.250299556262211 12.262537045001874 1.5150789991818439 0 0 0
121 1 16.208847729722745 10.834599748187106 0.06145755207157913 0 0 0
125 1 17.51647371481461 12.274367253797871 1.3373862122901043 0 0 0
123 1 18.844525930136744 10.859660367417597 2.7438474382328613 0 0 0
133 1 22.943593531060227 12.149251446941763 1.3391569320222985 0 0 0
131 1 24.417519197450996 10.91246871369687 2.703480935775987 0 0 0
141 1 28.581475464541487 12.25235339658965 1.2236133323535707 0 0 0
139 1 29.838983590474292 10.90581649652473 2.629065872904519 0 0 0
867 1 2.6457375902200173 16.281721714203282 2.7625737938952533 0 0 0
104 1 4.070341427583762 14.919428010248184 1.5094292649802499 0 0 0
106 1 5.538383719420192 13.657024402372977 2.760995877401541 0 0 0
112 1 9.443073471384736 14.937294161632838 1.3167313104048066 0 0 0
114 1 10.846624647337862 13.617608645701198 2.742404150800615 0 0 0
120 1 14.929854426298183 14.855038840087058 1.412512055969255 0 0 0
122 1 16.27274310776697 13.620115843076036 2.791533464508378 0 0 0
889 1 16.19548877331908 16.270226701192872 0.12788456265287204 0 0 0
161 1 10.841078885794843 0.036963497357298536 5.3240967707905416 0 0 0
128 1 20.332856445100983 14.890674156929245 1.3713322942320982 0 0 0
891 1 18.93282654630772 16.221192177327428 2.694653427318909 0 0 0
130 1 21.632264620331906 13.420837739887462 2.723816470532825 0 0 0
136 1 25.667812293708646 14.86743027795758 1.3741330484321714 0 0 0
138 1 27.22023273949677 13.607160590917951 2.6686630024446707 0 0 0
98 1 -0.014756452905054118 13.677856888084786 2.741138345886389 0 0 0
144 1 31.302511579228426 14.99176879912806 1.3428018127531902 0 0 0
907 1 29.952458889100917 16.184961110429512 2.7011629009186873 0 0 0
148 1 2.8035126294908004 2.6249522099753158 5.3716952430208025 0 0 0
7 1 4.149508106640054 1.2991379663189575 4.038313329754797 0 0 0
153 1 5.405869647756496 0.016314449500478126 5.369562967678285 0 0 0
156 1 8.010604773121543 2.6082292365923574 5.450605437225281 0 0 0
15 1 9.413175863961852 1.4137607379774562 4.050545611831465 0 0 0
164 1 13.68772076264252 2.7802092290984115 5.386828946978502 0 0 0
23 1 14.890114558878214 1.358730652517984 3.953536062604206 0 0 0
31 1 20.346529919491196 1.4435264164350745 3.9747120536138922 0 0 0
172 1 18.955099778015356 2.8580048388237493 5.34026366336579 0 0 0
177 1 21.76690939221454 0.03995082930258424 5.249081186103409 0 0 0
39 1 25.828338365897817 1.3626966179014721 4.029244998572397 0 0 0
180 1 24.541435905176986 2.8167411518328263 5.3001270739876425 0 0 0
185 1 27.17789998022302 0.0023796005007972482 5.3500108136255875 0 0 0
47 1 31.304232905174157 1.402581133173982 4.026526890337923 0 0 0
188 1 29.91552403952727 2.768076919138704 5.418708965904033 0 0 0
6 1 1.3816895051174682 4.112255749527989 4.065139588608663 0 0 0
193 1 0.015872115620526445 5.426570360542943 5.4209031743042875 0 0 0
201 1 5.499257407690115 5.521534599918288 5.545736534041641 0 0 0
14 1 6.774527847844006 4.114972109493354 4.103294884013945 0 0 0
209 1 10.727703938176642 5.35230148747984 5.350436667782919 0 0 0
22 1 12.17781291831394 4.075382645945219 4.058677315097467 0 0 0
30 1 17.598963423279844 4.212602640384336 3.9212514311930606 0 0 0
217 1 16.280759670958737 5.511116634682126 5.406654879443394 0 0 0
38 1 23.116441869124582 4.1390506085203835 3.976706003160482 0 0 0
225 1 21.825662549955723 5.321661881639062 5.397759437916417 0 0 0
46 1 28.50563716000827 4.1771205746676365 4.08422237904926 0 0 0
233 1 27.14989350756604 5.553111410006301 5.424129611754841 0 0 0
54 1 1.343941230278306 9.590533124097691 4.039561021463538 0 0 0
196 1 2.7387381621580653 8.19964906441423 5.385886362880983 0 0 0
55 1 4.004461260915132 6.7676937507617 4.0801011380781285 0 0 0
62 1 6.739959684861342 9.389351058741466 4.029465609372113 0 0 0
204 1 8.121883295418819 8.096046095840583 5.455460143308697 0 0 0
63 1 9.448509737534918 6.767820494110616 4.035890465899924 0 0 0
70 1 12.224381141963246 9.46343926714971 4.027185238218412 0 0 0
212 1 13.455935996980898 8.108610143046945 5.462925890465604 0 0 0
71 1 14.886573362412822 6.917844885898583 4.166185086741084 0 0 0
78 1 17.51122961848142 9.487197661536033 4.03359577731856 0 0 0
79 1 20.50041683510618 6.78757740364273 4.150440743226477 0 0 0
220 1 19.04432769910712 8.100806729622553 5.39630497029349 0 0 0
86 1 23.047136081093512 9.568265484007865 4.071782708374242 0 0 0
87 1 25.815247369220778 6.831805603260054 4.03140082568196 0 0 0
228 1 24.389967000620185 8.176328454547486 5.365184776296294 0 0 0
94 1 28.593147282324892 9.50982411605092 4.038819291207249 0 0 0
95 1 31.205218743836724 6.875152955082541 4.18743425173044 0 0 0
236 1 29.84305754545602 8.181902055964867 5.524502580452285 0 0 0
241 1 32.562126426096626 10.932390144252535 5.4243819134965445 -1 0 0
103 1 4.1651691731413125 12.024562167794773 4.061041995718942 0 0 0
249 1 5.528694482507347 10.697414002304782 5.482659063436547 0 0 0
111 1 9.522947441963748 12.06264191989616 3.9201477658993773 0 0 0
257 1 10.888762569378812 10.792889360027688 5.366373492795096 0 0 0
119 1 14.853530774009998 12.238873563741889 4.136372762173996 0 0 0
265 1 16.152789683407192 10.840175295287983 5.458696321915352 0 0 0
127 1 20.248958311266996 12.101915613146423 4.09191635488155 0 0 0
273 1 21.654658988219822 10.802117155119916 5.363395103081539 0 0 0
135 1 25.826953826591133 12.308979232014428 4.022144481443861 0 0 0
281 1 27.195825400053206 10.859576340127507 5.4431597978650315 0 0 0
143 1 31.275099961602464 12.261174748372513 4.010263325022803 0 0 0
102 1 1.3711158185552976 14.934011540853097 4.093450956163506 0 0 0
244 1 2.736892806486574 13.42416183329624 5.403112971657529 0 0 0
1009 1 -0.022010085942076804 16.194421090098754 5.441692346913921 0 0 0
110 1 6.832787326397042 15.032264661951375 4.091388295356825 0 0 0
252 1 8.183726856999458 13.506625691175485 5.248118401063367 0 0 0
1195 1 29.88460855481888 16.2694897187341 13.71714784207 0 0 0
118 1 12.281725986272573 14.947352827975081 4.100018895018922 0 0 0
260 1 13.631768326171967 13.627480460819005 5.500863069865857 0 0 0
426 1 27.23788045212291 13.642856871901307 13.567333510047211 0 0 0
126 1 17.681969350258505 14.966903683501965 4.214779028304968 0 0 0
268 1 19.001891171102336 13.569078698368717 5.516933828699033 0 0 0
1041 1 21.757592707698365 16.18967781994226 5.466090583952799 0 0 0
134 1 22.96897703865768 14.855198730002238 4.051216576285535 0 0 0
276 1 24.54507866175202 13.652391312182157 5.422671605300929 0 0 0
1049 1 27.171428062505594 16.163740949675738 5.334522916401802 0 0 0
142 1 28.552960249795913 14.877149150708751 4.003867393124595 0 0 0
284 1 29.86711160341223 13.558522631834801 5.406035287503928 0 0 0
146 1 0.04967187795568533 2.7388472680704594 8.120309955665231 0 0 0
149 1 1.3074477421352344 1.3730059566276862 6.7597131757980655 0 0 0
151 1 3.972542054697106 1.2002142660893922 9.472177956415763 0 0 0
154 1 5.376027977741911 2.501588868751499 8.17809826595604 0 0 0
157 1 6.7712240203804575 1.301771743027439 6.876344044363806 0 0 0
159 1 9.589671794897615 1.2413716841371571 9.391823422505654 0 0 0
162 1 10.930735713484655 2.6473691651138034 8.059954427170805 0 0 0
165 1 12.285755210870152 1.341000017983415 6.66390347767966 0 0 0
167 1 15.035530110276706 1.2922507304783033 9.504778018069498 0 0 0
170 1 16.43179464113023 2.767454431072385 8.10548445541781 0 0 0
173 1 17.649951333360384 1.4240200789802413 6.600101750185577 0 0 0
175 1 20.34665252542079 1.2743737410176472 9.327551653793268 0 0 0
178 1 21.69820317450265 2.7278785338923903 8.00286349028934 0 0 0
181 1 23.137108159392348 1.4752526844611176 6.644602309833594 0 0 0
179 1 24.469955586793954 0.15476803333224073 8.02654239259854 0 0 0
183 1 25.811843460767555 1.401479787788806 9.391400107737029 0 0 0
186 1 27.118975223582407 2.730145015510805 8.08018371989816 0 0 0
189 1 28.520446429975937 1.423280884647319 6.730027775354774 0 0 0
191 1 31.310654331631163 1.2866533294532416 9.460950591818849 0 0 0
150 1 1.2988358425866713 4.098650709033055 9.581274193521216 0 0 0
195 1 2.732885884156704 5.386880791434997 8.19177854740923 0 0 0
152 1 4.056680670896244 3.981596437115098 6.784110252219329 0 0 0
158 1 6.771461510988468 3.9110123807603157 9.553079147194685 0 0 0
203 1 8.157689926581243 5.340267160511023 8.198709704674192 0 0 0
160 1 9.48733828122548 3.975581797606293 6.785792378774204 0 0 0
166 1 12.24646858087366 3.929440132514909 9.55677454745395 0 0 0
211 1 13.574960557317837 5.372987244705602 8.206794037703716 0 0 0
168 1 15.014723039395342 4.0935040393693205 6.754457699604824 0 0 0
174 1 17.75959430455396 4.234753499564672 9.600550194267079 0 0 0
176 1 20.331243065581425 4.0922719006420705 6.707670307589985 0 0 0
219 1 19.039681443364586 5.631554725059773 8.13310686129089 0 0 0
182 1 23.00905886182936 4.098371999893659 9.500201592077143 0 0 0
184 1 25.790544717897518 4.1482005774702735 6.684810359016343 0 0 0
227 1 24.363780278731404 5.483148910015348 8.096892488075719 0 0 0
190 1 28.629347312525766 4.097417043128417 9.484087072013946 0 0 0
192 1 31.32426361333431 4.078979235400676 6.728063828221554 0 0 0
235 1 30.040460038935347 5.401525695732365 8.101325376449493 0 0 0
194 1 0.061938363268265295 8.110278470616686 8.107761706989209 0 0 0
197 1 1.4075319943119302 6.734893543908692 6.7427521040358265 0 0 0
198 1 1.3723539345091404 9.515519448954475 9.524404067488584 0 0 0
199 1 4.123899414220445 6.721412517466268 9.619622880182538 0 0 0
200 1 4.164741074607603 9.471577152502892 6.899661737060091 0 0 0
202 1 5.457980874771212 8.137085397823002 8.282497544347166 0 0 0
205 1 6.810287822683564 6.79777490992958 6.9322315741238345 0 0 0
206 1 6.846905670048446 9.65667058009811 9.489443091598773 0 0 0
207 1 9.446223003570896 6.70324600988801 9.6066185920522 0 0 0
208 1 9.460036325394086 9.411451832489654 6.709650122991533 0 0 0
210 1 10.753039869556307 7.96148466645003 8.096456472074498 0 0 0
213 1 12.184103388552364 6.60432552116138 6.855949116526038 0 0 0
214 1 12.17457435164919 9.372409747768632 9.4983057795127 0 0 0
215 1 14.911909590913876 6.771527511844933 9.492483367648726 0 0 0
216 1 14.819261553358837 9.51549521804375 6.83197821149886 0 0 0
218 1 16.221915958473097 8.129398230159604 8.091154815410896 0 0 0
221 1 17.6387632613431 6.832714207360298 6.677032277246035 0 0 0
222 1 17.6395153786679 9.577597890175184 9.462987683899238 0 0 0
223 1 20.413434282999713 6.871573144353989 9.556738701389554 0 0 0
224 1 20.42851641531335 9.430090648273382 6.8289247217057 0 0 0
226 1 21.753447369804846 8.16284882179359 8.14927440847292 0 0 0
229 1 23.13920310675876 6.85609299310476 6.705308383736177 0 0 0
230 1 23.018846196089342 9.62027005191857 9.498070579779188 0 0 0
231 1 25.901987818911593 6.7397631912927825 9.397296847936142 0 0 0
232 1 25.75441453527916 9.606789706685973 6.774777024411634 0 0 0
234 1 27.21415489866339 8.150618183097551 8.107587684627212 0 0 0
237 1 28.603763213927333 6.820980340195158 6.8167267660266315 0 0 0
238 1 28.565840046491658 9.499747859764467 9.533264202546057 0 0 0
239 1 31.36667791254557 6.672221438027664 9.44042016750562 0 0 0
240 1 31.218782599866838 9.537818405253867 6.866500020349502 0 0 0
243 1 2.7668299359316606 10.874272974364127 8.119620274574197 0 0 0
245 1 1.392434073510061 12.121715259207289 6.839212384743775 0 0 0
247 1 4.044854142794401 12.2351521665044 9.409358612621554 0 0 0
251 1 8.29852785189783 10.861290935840467 8.067150371337032 0 0 0
253 1 6.891090540620231 12.223469755889395 6.789007507355134 0 0 0
255 1 9.48151297215068 12.193318661219056 9.524630419686273 0 0 0
259 1 13.479512622048578 10.897879044319405 8.270727941476201 0 0 0
261 1 12.161138180266768 12.203928269815222 6.796861821337655 0 0 0
263 1 14.977429764473099 12.369189284712718 9.501442262918632 0 0 0
269 1 17.628462605153604 12.245693726245813 6.80261480065757 0 0 0
267 1 19.03275398714949 10.87508730070974 8.089972539204341 0 0 0
271 1 20.43238097626691 12.109847555557241 9.455677695643079 0 0 0
277 1 23.17868212939316 12.194412921330988 6.638624944784906 0 0 0
275 1 24.45300290843117 10.909452580140423 8.09736474705797 0 0 0
279 1 25.896018223026022 12.311506901606384 9.41242730911225 0 0 0
285 1 28.62615855590777 12.148596613658516 6.809784416739338 0 0 0
283 1 29.950726498444386 10.81001646842999 8.249640803302206 0 0 0
287 1 31.294091546667794 12.126732990827259 9.522439356975044 0 0 0
430 1 28.488361498855863 14.863559877168544 14.949292916330405 0 0 0
242 1 0.049439939458437554 13.559759280292933 8.190767141248921 0 0 0
246 1 1.3717188693236577 14.947703210170497 9.561956822286099 0 0 0
248 1 4.02495661136861 14.876037939237392 6.791641539560513 0 0 0
250 1 5.532883555352437 13.694862245046462 8.105636804196514 0 0 0
254 1 6.840490830073749 14.966010160496023 9.641695288169124 0 0 0
256 1 9.453383853415975 14.970517215682229 6.721401330370214 0 0 0
258 1 10.847772500295243 13.573252646392907 8.060882771603088 0 0 0
262 1 12.13133456244778 14.969846386948937 9.455327023240535 0 0 0
264 1 14.846062424650587 14.99096176556636 6.802549931666196 0 0 0
266 1 16.29873760058322 13.682059591234015 8.096072932787974 0 0 0
270 1 17.641879514432272 14.9028867642461 9.616790439428273 0 0 0
1035 1 18.920852917893928 16.26673279637072 8.12225500141072 0 0 0
272 1 20.44116946156252 14.8836610646646 6.955378146246128 0 0 0
274 1 21.908685670491284 13.438738299466989 8.151279895625391 0 0 0
278 1 23.14579910374986 14.874533150745629 9.436317804852496 0 0 0
1329 1 21.76238620800555 16.19361980307382 16.198290310910505 0 0 0
280 1 25.84191744375714 15.01366141986768 6.783231845562705 0 0 0
282 1 27.316442512138334 13.613598469744485 8.06753571694012 0 0 0
286 1 28.6155500002617 15.027153592560923 9.421740829553913 0 0 0
418 1 21.649047514738875 13.492708903355547 13.50645096099089 0 0 0
288 1 31.20460094619732 14.961640513458283 6.843970381021256 0 0 0
292 1 2.6381009551483494 2.5969882177446735 10.80774915457294 0 0 0
293 1 1.3311005475429032 1.300765692957905 12.250042892175466 0 0 0
297 1 5.444892666552072 0.03867743292570982 10.86067282392296 0 0 0
300 1 8.281470756854395 2.619737105967891 10.75140653040701 0 0 0
301 1 6.84895905749259 1.239497839012482 12.24770879142002 0 0 0
305 1 10.934032545964108 0.07829053975171571 10.887564803380492 0 0 0
308 1 13.620109046398067 2.6687769817754217 10.8586059900847 0 0 0
309 1 12.319489478401886 1.3338509438208874 12.229283984497743 0 0 0
317 1 17.830775646378097 1.3141884559602492 12.239728428666314 0 0 0
316 1 19.077983420100516 2.6867705772040256 10.824582593023091 0 0 0
325 1 23.12237059464188 1.3430367145561264 12.14672159890116 0 0 0
324 1 24.439804743652807 2.765715567020358 10.76175194059048 0 0 0
333 1 28.464366795233715 1.3523058761510298 12.286259439755629 0 0 0
332 1 29.924903944837997 2.592378727405297 10.85880887337613 0 0 0
296 1 3.942271276338923 3.970196205201019 12.219698582272398 0 0 0
345 1 5.473984536274822 5.372223147729827 10.889213913274645 0 0 0
304 1 9.564546068609078 3.9059832765352933 12.121482178327797 0 0 0
353 1 10.8944860862917 5.347160347246369 10.760971112659089 0 0 0
312 1 14.93868588380461 3.9934787692731706 12.230925279337635 0 0 0
361 1 16.18734042601261 5.463776988935041 10.891216117342509 0 0 0
320 1 20.423216039018364 4.000058365164165 12.066225879344024 0 0 0
369 1 21.802691204055684 5.482664955316505 10.817958740122705 0 0 0
328 1 25.82510769767703 4.095779054808068 12.210128896222555 0 0 0
377 1 27.249661519166512 5.408962617946988 10.76652839907715 0 0 0
337 1 0.004127411959302663 5.428294265524371 10.90701863977319 0 0 0
336 1 31.220495048891404 3.981999452012451 12.224682887170298 0 0 0
340 1 2.7869147758374773 8.204575455575622 10.830422808151393 0 0 0
341 1 1.3122782887646796 6.929962288159673 12.210611781683957 0 0 0
344 1 4.075577945199616 9.579224770337731 12.126985505882443 0 0 0
348 1 8.022180827280021 8.241033538707638 10.873878472102263 0 0 0
349 1 6.77229066727394 6.709902745608047 12.263836037874885 0 0 0
352 1 9.479661762562323 9.474428371859304 12.299784528068015 0 0 0
356 1 13.598262641870472 8.122221021227638 10.863209505029483 0 0 0
357 1 12.331090622743469 6.673311531789419 12.168364273336755 0 0 0
360 1 14.84531559458798 9.574542464194813 12.276985322484885 0 0 0
365 1 17.649380400463894 6.878900924732022 12.260436744526665 0 0 0
364 1 18.964211253392914 8.159106337975079 10.921538188192422 0 0 0
368 1 20.39099388081627 9.520094346959835 12.27943287435222 0 0 0
373 1 23.10522030591996 6.813175531868727 12.217248416514607 0 0 0
372 1 24.528515820712137 8.222746531203953 10.83020522510363 0 0 0
376 1 25.937867446586154 9.473654766299996 12.252957539252645 0 0 0
381 1 28.575144762142546 6.81821470616782 12.10467106675123 0 0 0
380 1 30.043178359050835 8.12635772309712 10.770529502307328 0 0 0
384 1 31.188084135554583 9.510784622872064 12.191196194167516 0 0 0
389 1 1.311254042203393 12.190055143699192 12.18386888214465 0 0 0
393 1 5.395503178969004 10.977929521951257 10.868765142626739 0 0 0
397 1 6.805205366303786 12.319954153897074 12.318233441719872 0 0 0
401 1 10.786880738807909 10.753778097451772 10.788497012951632 0 0 0
405 1 12.283771510198216 12.117524383909597 11.988139400524194 0 0 0
409 1 16.174684625827183 10.991155232637857 10.83697409059093 0 0 0
413 1 17.582875119124555 12.14554121203089 12.230877198494262 0 0 0
417 1 21.77043992624838 10.803216962844557 10.948774140005705 0 0 0
421 1 23.176024505105573 12.022058514350185 12.333188927018114 0 0 0
425 1 27.11574134853657 10.886433623702194 10.871851232725675 0 0 0
429 1 28.553311988077823 12.250398393258884 12.183991000436412 0 0 0
385 1 -0.01582023482362871 10.781009352853632 10.905728753393614 0 0 0
1153 1 32.55638886772732 16.246408404033946 10.918832384323743 -1 0 0
388 1 2.7051023179372224 13.577795344035925 10.879931655966928 0 0 0
392 1 3.981314896907932 14.986200317430349 12.250616337151763 0 0 0
396 1 8.23645274661347 13.562280727094626 10.905037583737302 0 0 0
400 1 9.539177811404578 14.912244717893117 12.232591834931528 0 0 0
404 1 13.548840195677222 13.56656806856601 10.866045783935483 0 0 0
422 1 23.14280793435324 14.836864432621564 14.945630835002063 0 0 0
408 1 14.806039150291705 14.914299231421674 12.202768966475857 0 0 0
412 1 18.94547236576787 13.48246840898137 10.902895410437294 0 0 0
416 1 20.351959165668806 14.891211498701278 12.204449445944414 0 0 0
1185 1 21.675645441271126 16.144184880292155 10.765173638158327 0 0 0
420 1 24.410502992538767 13.43898565918041 10.790294733698175 0 0 0
424 1 25.674433742968393 14.885398768030033 12.172961822154965 0 0 0
428 1 29.946067179853667 13.612362748859406 10.744052067219256 0 0 0
432 1 31.25130801908916 14.900679869381424 12.289655356763404 0 0 0
295 1 4.121749747530783 1.2767169813160708 14.851267181985822 0 0 0
298 1 5.449227143758453 2.6531824695983293 13.510679744242413 0 0 0
556 1 19.07059071096781 13.448716521394664 16.272745789029926 0 0 0
444 1 8.189520063399938 2.6801258378254835 16.14720549753734 0 0 0
303 1 9.5374569428603 1.2274916782032776 14.818663705550778 0 0 0
306 1 10.892273937139956 2.6000929851594963 13.500133780223056 0 0 0
311 1 15.100799755146268 1.213208860955027 14.932444317433939 0 0 0
314 1 16.357324373411092 2.6043703517610197 13.496776857397375 0 0 0
319 1 20.419764418237435 1.3094353585046712 14.828233715374965 0 0 0
322 1 21.72844210507427 2.721390233816342 13.49640911051772 0 0 0
414 1 17.604264724257174 14.887367571343573 14.916573673040418 0 0 0
410 1 16.247479683696376 13.578153252631045 13.536097473653893 0 0 0
327 1 25.798540909259685 1.3610249815698259 14.807996246651323 0 0 0
1017 1 5.4554648595863435 16.28240795351798 5.485100288653885 0 0 0
330 1 27.216586649158405 2.703517184555451 13.625725124435633 0 0 0
406 1 12.189308509267093 14.926585831628845 14.891910110854205 0 0 0
290 1 32.56257103014413 2.6782154859642335 13.551072954701908 -1 0 0
335 1 31.31297330851857 1.2693453109117765 14.882615731834722 0 0 0
402 1 10.902422639277262 13.488234777490941 13.48128266442214 0 0 0
294 1 1.3251597075275572 4.042701522781154 14.917077708456771 0 0 0
339 1 2.551381370700789 5.434527112421516 13.573985585072732 0 0 0
43 1 29.857336038522945 0.14250783996019578 2.6751004806478673 0 0 0
489 1 5.479845009565815 5.337078184029369 16.247330803569685 0 0 0
302 1 6.8055228426427865 4.054567603816522 14.898163249339024 0 0 0
347 1 8.199849817508534 5.318610687485183 13.502257348999564 0 0 0
497 1 10.779743034780477 5.411199565192424 16.249462857771086 0 0 0
310 1 12.193421386038272 3.897098113080118 15.056254401330822 0 0 0
355 1 13.56814807528574 5.316664203868556 13.605408421101917 0 0 0
318 1 17.586613665214927 4.109168184929983 14.889881542446009 0 0 0
363 1 19.011633660166908 5.42400831320394 13.539469073552127 0 0 0
326 1 23.169137319376148 4.080673414280931 14.904733047617272 0 0 0
35 1 24.453753432372373 0.052289437930205906 2.7200542165425974 0 0 0
371 1 24.508328374906526 5.452758165234384 13.543520214578054 0 0 0
334 1 28.731722377029584 3.9675825881596536 14.942221068033321 0 0 0
521 1 27.255025795073042 5.354845959920752 16.26736499107618 0 0 0
379 1 29.93448938700489 5.44037594277387 13.583207731031784 0 0 0
342 1 1.36574413163702 9.546207262620044 14.881701332721184 0 0 0
343 1 3.962992318713458 6.7308708852483 14.878178834130862 0 0 0
346 1 5.27544302296027 8.124728674361645 13.560151293060171 0 0 0
350 1 6.589359986503193 9.469656242130458 15.021468292087766 0 0 0
351 1 9.534006327664828 6.755272923421112 14.82417715761975 0 0 0
354 1 10.923388927309041 8.09868679709517 13.521381450966405 0 0 0
358 1 12.159269199116123 9.468892824136164 14.928755348677852 0 0 0
500 1 13.61844405824307 8.143371649753101 16.22488408772864 0 0 0
359 1 14.947560820963757 6.77621656797753 14.893656364732124 0 0 0
362 1 16.37162977457306 8.27653703139923 13.589020982420477 0 0 0
366 1 17.601621475630406 9.522804581231359 15.003970883555617 0 0 0
367 1 20.399833825676176 6.737477877041699 15.01581680683536 0 0 0
331 1 29.886699151878762 -0.006284746728582036 13.625012811845203 0 0 0
370 1 21.692781958850478 8.123119629116003 13.679448160482847 0 0 0
374 1 23.043588096309655 9.440822397895186 14.976112284682632 0 0 0
375 1 25.935183711798985 6.789765350186282 14.92622449254185 0 0 0
378 1 27.27373668989458 8.072675767461323 13.513946838983703 0 0 0
382 1 28.529793176938856 9.455540097602238 15.012325665944632 0 0 0
338 1 32.51578422021071 8.237017441438303 13.563269574813825 -1 0 0
383 1 31.297518951310803 6.8233630368876215 15.067708270685317 0 0 0
899 1 24.242536881537088 16.16934019657242 2.7464631758250966 0 0 0
387 1 2.7143034699057194 10.872636645840691 13.546442651919637 0 0 0
391 1 3.9926276732925663 12.279918321774462 14.901734468241637 0 0 0
398 1 6.860934427410973 14.948253614880374 15.102528859105586 0 0 0
395 1 7.964890859326384 10.88129152496075 13.715678622580612 0 0 0
399 1 9.5331561013432 12.196219331288278 14.884238672427575 0 0 0
403 1 13.512774204651057 10.752206360430723 13.633064335293497 0 0 0
407 1 14.900047825645581 12.171285502281828 14.954724656319936 0 0 0
1163 1 8.166826721029793 16.28887444197839 13.63329556405683 0 0 0
415 1 20.40745240847887 12.18919867788489 14.881754721776167 0 0 0
411 1 19.00974919221237 10.80070146844527 13.640034904695971 0 0 0
423 1 25.937671429440584 12.142607120156121 14.861860653135352 0 0 0
419 1 24.565590584320862 10.670640875652435 13.667829305770498 0 0 0
431 1 31.106649174291807 12.124241053617878 14.887474533562834 0 0 0
427 1 29.81543681771917 10.817454727077715 13.484668229343319 0 0 0
529 1 32.55944127292557 10.882142750656966 16.182699681698757 -1 0 0
394 1 5.429742241218452 13.636544599033726 13.737410636943501 0 0 0
390 1 1.2719308817188268 14.920740779015219 14.980488321097752 0 0 0
386 1 -0.02563537148143994 13.479521306660978 13.701453850071138 0 0 0
436 1 2.586306761961249 2.5770380208523425 16.277994924113152 0 0 0
905 1 27.168020582093675 16.246769282888664 0.07326043245772951 0 0 0
505 1 16.27785396521916 5.408155378570837 16.217393344773637 0 0 0
492 1 8.1107557989143 8.152833595902479 16.233514341014278 0 0 0
516 1 24.51998693994636 8.096981390305219 16.26379594633485 0 0 0
545 1 10.81611217330393 10.824073473040341 16.269580147208753 0 0 0
564 1 24.471555331967924 13.474247531003684 16.267551956662203 0 0 0
572 1 29.947084614663677 13.560866177471896 16.246469498077598 0 0 0
116 1 13.527842201248426 13.570476705143683 0.0765596956251926 0 0 0
873 1 5.407869186600414 16.279848056292618 0.06298339309198298 0 0 0
100 1 2.8710685617794973 13.529175418031121 0.05722404701919004 0 0 0
44 1 29.990031646376412 2.7768363211924383 0.08122850791497882 0 0 0
49 1 -0.005807181659456262 5.419495209344004 0.020654096042186154 0 0 0
1337 1 27.20916273504427 16.24464408481048 16.242781784923956 0 0 0
97 1 0.04813741931624346 10.917270538630941 0.04075355593726471 0 0 0
113 1 10.832288833322002 10.854416229805551 -0.013254959320363469 0 0 0
129 1 21.59570021068158 10.820611464249675 -0.011712504415449132 0 0 0
1619 1 24.386175572845247 16.216441912726395 29.96764927784767 0 0 0
437 1 1.208639622987153 1.2135311254106278 17.600610030726134 0 0 0
442 1 5.374906104112114 2.595363337861079 19.107187455677735 0 0 0
140 1 30.051733335720222 13.639016875876589 32.55866369987569 0 0 -1
445 1 6.860943253427083 1.328899628587454 17.565754407140727 0 0 0