LAMMPS data file via write_data, version 19 Nov 2024, timestep = 60100, units = metal

1728 atoms
1 atom types

-0.026352762741503 32.60635276274077 xlo xhi
-0.026352762741503 32.60635276274077 ylo yhi
-0.026352762741503 32.60635276274077 zlo zhi

Atom Type Labels

1 Si

Masses

1 28.0855

Atoms # atomic

572 1 29.809642944618737 13.50791670859497 16.132579383051127 0 0 0
4 1 2.6134126989495376 2.774163551430204 0.053041671299485255 0 0 0
5 1 1.2572094119142057 1.400256539048087 1.4158317771011841 0 0 0
10 1 5.284170076218267 2.7121801818764233 2.7723568953682483 0 0 0
13 1 6.738133297480285 1.2756889434085033 1.3907578063762087 0 0 0
18 1 10.817756885649189 2.724326842296556 2.7741769921130985 0 0 0
426 1 27.190224770273385 13.515038324188778 13.53665987972161 0 0 0
21 1 12.201282845307343 1.3635472081287379 1.4277429400678214 0 0 0
26 1 16.240881597614685 2.57767794282606 2.608975148760182 0 0 0
29 1 17.683192398370558 1.2012329323698447 1.3698890008270996 0 0 0
28 1 19.018783651081932 2.679290804085502 -0.007640228856255475 0 0 0
430 1 28.47968580125551 14.901570298989526 14.853506095174005 0 0 0
34 1 21.818440484508276 2.5672029977871094 2.590943783669697 0 0 0
37 1 23.111576728633782 1.1547756336864936 1.2522434927364916 0 0 0
564 1 24.439525946861327 13.532367067125715 16.258757698283837 0 0 0
42 1 27.16444672369718 2.7007233037987106 2.6289418292707394 0 0 0
45 1 28.519586619394733 1.2801021509532406 1.2869345896108049 0 0 0
2 1 32.50449108033219 2.7941452853437068 2.723361659884779 -1 0 0
418 1 21.782108200313868 13.518938957774408 13.59513307979497 0 0 0
51 1 2.617747463218482 5.375522108158648 2.751549635509732 0 0 0
8 1 4.049352731817793 4.0501895598457365 1.3590771804155166 0 0 0
1337 1 27.176972753337257 16.196791724097157 16.20084691694569 0 0 0
59 1 8.072038228936275 5.3812332026482546 2.7040746287300634 0 0 0
16 1 9.478187025502663 4.017978284032899 1.3479553982394565 0 0 0
65 1 10.853931331852376 5.473299059556053 0.06684105613700222 0 0 0
67 1 13.551209774058828 5.389161505402592 2.8361397655780656 0 0 0
24 1 14.902388705818003 4.007051579283278 1.3576490700845607 0 0 0
73 1 16.296352477936903 5.376486005186907 0.0037101748333828646 0 0 0
32 1 20.446798203458854 3.96236897418789 1.3280723459363952 0 0 0
75 1 19.103817423747817 5.393294155805357 2.5845576049858945 0 0 0
40 1 25.666415453774444 4.064565336353638 1.3288655857166438 0 0 0
83 1 24.43112158704785 5.3855699513456265 2.815773429659733 0 0 0
89 1 27.226941758974682 5.330714361905068 0.08936409322162189 0 0 0
299 1 8.11937698080853 0.004980478500286267 13.474740313086036 0 0 0
48 1 31.05224040435494 4.059994630772168 1.2702393544633823 0 0 0
91 1 29.795035006191597 5.282079132915465 2.7126874889661146 0 0 0
52 1 2.5197509335502315 8.108128494009216 0.04591239869478895 0 0 0
53 1 1.2520909713308639 6.682808661376537 1.3456297357057363 0 0 0
56 1 4.0754720792977 9.426339558925184 1.2643377924674422 0 0 0
58 1 5.374899490805079 8.162498064328997 2.670236985256063 0 0 0
1187 1 24.50652068413171 16.217437605898706 13.613855795285307 0 0 0
61 1 6.647380925919201 6.733007144649663 1.3583329680647283 0 0 0
64 1 9.508056367872744 9.448291513381827 1.2739886808423933 0 0 0
66 1 10.851067979034582 8.135238582651906 2.6139029872237938 0 0 0
68 1 13.605951716103164 8.049873173740716 -0.022984333406666307 0 0 0
69 1 12.284319312269579 6.793351486479433 1.3875690271435424 0 0 0
72 1 14.901633910398528 9.459837231120943 1.3172896860800356 0 0 0
74 1 16.37287227327503 8.105911831166567 2.7208675000354026 0 0 0
77 1 17.674677947224534 6.677344911897012 1.2750996098074538 0 0 0
80 1 20.525044509093743 9.493158400930561 1.24701275189035 0 0 0
82 1 21.805266527769206 8.064047823865856 2.6524585240262173 0 0 0
85 1 23.199180878728487 6.695652008204238 1.3728384877293567 0 0 0
1321 1 16.335795535783536 16.277298851637 16.27287707911727 0 0 0
88 1 25.83070778963681 9.486187932561775 1.4027109955574018 0 0 0
90 1 27.211386609149272 7.992358680285027 2.760141449238634 0 0 0
93 1 28.576846771381444 6.730798880330204 1.3974837775718423 0 0 0
50 1 32.5618709050229 8.0763847945258 2.6984217067175833 -1 0 0
92 1 29.8647802677036 8.228966601933331 0.09843068460589681 0 0 0
96 1 31.234825099167125 9.541144558979703 1.4478857582199027 0 0 0
99 1 2.7559053089509162 10.78386458805177 2.719947766070469 0 0 0
101 1 1.3882260166816598 12.204086187748775 1.4110094349986049 0 0 0
107 1 8.141977912340431 10.767541126058624 2.8122640692445553 0 0 0
109 1 6.766758165440781 12.161685679651566 1.3444681478781444 0 0 0
171 1 18.95951092077142 0.0848248106826972 8.113080323005487 0 0 0
115 1 13.489463530233321 10.888224993124705 2.5488512153363145 0 0 0
117 1 12.176314624653786 12.216969698412539 1.2238099132893636 0 0 0
125 1 17.73930925531341 12.18334804716627 1.3756060853423906 0 0 0
123 1 19.202702537162725 10.834217571299698 2.70944536334773 0 0 0
147 1 2.6634905906241744 0.025265004680910863 8.166759769406902 0 0 0
133 1 23.131220569135067 12.25005924804211 1.4089522092739488 0 0 0
131 1 24.42401142425582 10.84150810436167 2.7279865618990438 0 0 0
137 1 27.107536567709126 10.850437112515996 0.10789739110908256 0 0 0
141 1 28.465336486391262 12.229136329175574 1.2984920534133537 0 0 0
139 1 29.898535539044722 10.954020987054658 2.7326898233778034 0 0 0
98 1 0.003661518664053853 13.630980630130107 2.6428258323989553 0 0 0
104 1 4.136536626137206 14.850328884424126 1.2931607601433812 0 0 0
106 1 5.432763058742131 13.529750907932725 2.733865155551015 0 0 0
1009 1 32.456466600782576 16.246138340899837 5.3387767998362605 -1 0 0
875 1 8.08095542642121 16.254265220389463 2.6258797552014586 0 0 0
112 1 9.479228048095264 14.878855428677149 1.332933152075757 0 0 0
114 1 10.85164723599931 13.562265102509814 2.739160506289871 0 0 0
881 1 10.87001941681693 16.21905703407077 0.02582730362381795 0 0 0
1049 1 27.20976404497338 16.245645861002554 5.480590742658551 0 0 0
422 1 23.135253424442187 14.939554822557483 14.938746480979983 0 0 0
120 1 14.967449387537945 14.924483414463554 1.2701473780667678 0 0 0
122 1 16.316767143128015 13.586882889751287 2.645193305232343 0 0 0
128 1 20.4093650587946 14.942160649772399 1.2276850546057234 0 0 0
130 1 21.677936481291376 13.605473791244439 2.6783519673410883 0 0 0
897 1 21.821037898748266 16.25919958681431 -0.005831410487098235 0 0 0
1033 1 16.365611239147693 16.183043694787813 5.401734518999679 0 0 0
136 1 25.71919134337206 14.889159833064607 1.2712451810114467 0 0 0
138 1 27.149981580291275 13.559605515552025 2.6399612104200636 0 0 0
1025 1 11.001645055797368 16.281507377349815 5.382634386256972 0 0 0
144 1 31.314690995743444 15.004918149069184 1.2909384677242433 0 0 0
3 1 2.60529942728928 -0.012369225872781442 2.7327163236916685 0 0 0
148 1 2.677558956278956 2.783811085521264 5.438006575247413 0 0 0
7 1 3.9442071207929565 1.2468150426726266 4.19380745093099 0 0 0
156 1 8.169018193289588 2.6715981523610544 5.444601712452838 0 0 0
15 1 9.539857918916677 1.2879338673174594 4.112875270209043 0 0 0
410 1 16.21230368966163 13.536490533330188 13.49817980744881 0 0 0
164 1 13.645358362289416 2.7704633164478762 5.422182814932181 0 0 0
23 1 14.860993174587218 1.299498758380639 4.096458183360536 0 0 0
31 1 20.47248610188464 1.2367598012900254 4.0776455553871775 0 0 0
172 1 18.976040218415925 2.643485603230739 5.297541775491193 0 0 0
39 1 25.83723795057318 1.2396649463330978 3.978242914251193 0 0 0
180 1 24.43442408198115 2.499520600562108 5.432657890231106 0 0 0
414 1 17.642444957331588 14.950835068903407 14.845920270555185 0 0 0
47 1 31.249671203954307 1.2202836997484914 4.089709818781599 0 0 0
188 1 29.81708535302746 2.5998789406102274 5.417978659085281 0 0 0
6 1 1.282805070696914 4.037571209121498 4.152053364796258 0 0 0
201 1 5.407502138643737 5.352902230464425 5.4097243149606715 0 0 0
14 1 6.816915276944974 3.9888487336039447 4.109710306694265 0 0 0
209 1 10.752976703768576 5.443864672203655 5.436317704261819 0 0 0
22 1 12.157660625710104 4.069826010034234 4.203918639179619 0 0 0
30 1 17.65777007816926 3.9697151530337287 3.935400376007177 0 0 0
217 1 16.364559025314854 5.363898134897651 5.46932104355099 0 0 0
38 1 23.052991116875628 3.8933647695364204 4.056832077447996 0 0 0
225 1 21.704973934415555 5.314507274991249 5.340986806462787 0 0 0
46 1 28.42658553656127 4.002184819791748 4.044825444161119 0 0 0
233 1 27.089157719903625 5.35189935704892 5.452847012646825 0 0 0
193 1 32.5231550156597 5.454611601740213 5.500431795557442 -1 0 0
54 1 1.3389888763946898 9.389631500430607 4.059556870938322 0 0 0
196 1 2.67778611557155 8.128664060639615 5.421505976573344 0 0 0
55 1 4.039607090312542 6.766200463611557 4.10013468228219 0 0 0
62 1 6.724961707884466 9.462664467377449 4.075257819811834 0 0 0
204 1 8.064588452768257 8.149578293120454 5.332382478910871 0 0 0
63 1 9.436062138556098 6.805074014489548 4.015980434873904 0 0 0
70 1 12.267555374888582 9.376099477174243 3.8887435675967907 0 0 0
212 1 13.556708908241308 8.195899919423246 5.440210974945495 0 0 0
71 1 14.979606602377947 6.769817611128568 4.126768369217171 0 0 0
78 1 17.701011160398764 9.644537492292018 4.018093158617845 0 0 0
79 1 20.457514266906617 6.83303020565984 4.119215762285539 0 0 0
220 1 19.117186170670987 8.244323459664852 5.4362500416900055 0 0 0
86 1 23.1441312524171 9.521190906995857 4.041175104579844 0 0 0
87 1 25.794227019639493 6.734544618473806 4.112575850095196 0 0 0
228 1 24.414163497690257 8.04725430278133 5.387309282444131 0 0 0
94 1 28.448369403241465 9.55402460157928 4.09848088632816 0 0 0
95 1 31.223110401271875 6.695372072457622 4.05624995481455 0 0 0
236 1 29.864199825058364 8.113922277087626 5.363279439687515 0 0 0
103 1 3.9934158938839093 12.16112085225123 4.050863494758119 0 0 0
249 1 5.4686498165592745 10.76430565281021 5.424892141011726 0 0 0
111 1 9.470176025411481 12.18387060498898 4.088375510540815 0 0 0
257 1 10.873049821580858 10.721581872610717 5.293718544959115 0 0 0
119 1 14.916512265487418 12.262351422425823 3.9632871222347976 0 0 0
265 1 16.32602003578285 10.963368177150752 5.3581428915112 0 0 0
127 1 20.48000937369692 12.164694043033265 4.117946217154185 0 0 0
273 1 21.835046594859083 10.79062916536444 5.434350196226383 0 0 0
135 1 25.790589300818734 12.264861111344068 4.024949127918216 0 0 0
281 1 27.035570543237615 10.904273663832367 5.409543090084392 0 0 0
241 1 32.600068457153995 10.904952926961144 5.363062904730314 -1 0 0
143 1 31.287077221348245 12.27869719996648 4.071430204409603 0 0 0
102 1 1.3542771594944467 15.049760423719807 4.0131996990122465 0 0 0
244 1 2.649528736440285 13.550315735613411 5.43972503387357 0 0 0
899 1 24.435233589217948 16.2677460884469 2.776412215425308 0 0 0
110 1 6.754717042164819 14.932271248846062 4.124735530060829 0 0 0
252 1 8.183853923600623 13.632647994448863 5.40972095515867 0 0 0
118 1 12.32706115878092 14.945248529762235 3.9379557628828072 0 0 0
260 1 13.555442153741152 13.572052082405044 5.328389565914774 0 0 0
126 1 17.634952530989455 14.886081420386743 4.008407179837088 0 0 0
268 1 19.01226322355187 13.569113272009057 5.527430605384152 0 0 0
134 1 23.06934694495273 14.880596886281936 4.060275800170144 0 0 0
276 1 24.385134113503828 13.577325520857011 5.435779274752133 0 0 0
142 1 28.53602729936729 15.03414018261312 4.027129707549251 0 0 0
284 1 29.847666526197727 13.622617097494292 5.414441246892813 0 0 0
146 1 -0.006065569022624701 2.6577548140468137 8.132047654114022 0 0 0
149 1 1.2857079150181263 1.2975002420444333 6.746929252133505 0 0 0
151 1 4.066363937650918 1.4106524050944693 9.479158487395502 0 0 0
154 1 5.536611609412085 2.657379309177557 8.066290563136294 0 0 0
406 1 12.227795718473097 14.908698412003206 14.951908428447682 0 0 0
157 1 6.782360271573083 1.276624013195515 6.692919437859148 0 0 0
159 1 9.409258925888825 1.3532442357230363 9.547128894862658 0 0 0
162 1 10.85083615340721 2.740190354385909 8.185261366595476 0 0 0
402 1 10.913772598875179 13.551917821910155 13.564701553344685 0 0 0
165 1 12.263595728247449 1.379294813500282 6.816913326025984 0 0 0
167 1 14.903926619667331 1.2895448056909664 9.508781978718432 0 0 0
170 1 16.22749856610617 2.700182769076821 8.211159773499334 0 0 0
173 1 17.556488410428617 1.370860921343858 6.770889160025031 0 0 0
175 1 20.315331616013026 1.4112404213837324 9.43205423560256 0 0 0
178 1 21.698873843968467 2.677781028843692 8.109688520615205 0 0 0
181 1 23.026211105261762 1.1909876329464295 6.754058646525155 0 0 0
183 1 25.638045758824887 1.3491966106882678 9.521863339169661 0 0 0
186 1 27.0187854570008 2.7193188769200782 8.26057668315117 0 0 0
189 1 28.475372181514416 1.2825507432834555 6.881253237287881 0 0 0
187 1 29.897833353893297 -0.0040285072596085115 8.217622778747721 0 0 0
191 1 31.26737983968036 1.357904585647748 9.550638373534987 0 0 0
150 1 1.3373928726691287 4.107608238646177 9.507131402231048 0 0 0
195 1 2.6944634148531343 5.472054256146841 8.2259135256188 0 0 0
152 1 4.013883235014553 4.0805668107011455 6.864208763146833 0 0 0
158 1 6.796056691321429 4.076361333831777 9.518734757358708 0 0 0
203 1 8.206065306717257 5.463399451860399 8.17921004277247 0 0 0
160 1 9.485192265634732 4.012542184113725 6.807760426302268 0 0 0
166 1 12.135824108077433 4.0925996800059 9.490253517948377 0 0 0
211 1 13.39974971529433 5.477099883435876 8.100708633554543 0 0 0
168 1 14.951147390772999 4.102819755404147 6.87679915032939 0 0 0
174 1 17.657140890789098 4.066675629381831 9.578224800225973 0 0 0
176 1 20.3259849355514 3.9550467947197845 6.718242803809512 0 0 0
219 1 18.958500416088835 5.380251445283463 8.191263290556313 0 0 0
182 1 23.0310221764967 3.9345577290740112 9.56917561818116 0 0 0
184 1 25.795174561339334 3.922779718301541 6.682924822335673 0 0 0
227 1 24.39325923333664 5.244748762906684 8.116861655469776 0 0 0
190 1 28.5176060833572 4.048610024415441 9.50772352478672 0 0 0
192 1 31.178512647357856 4.048169122942772 6.742788489314002 0 0 0
235 1 29.882887071889204 5.463320422689407 8.096454903358449 0 0 0
197 1 1.362272086569804 6.871970963196519 6.809502318735096 0 0 0
198 1 1.3308137613527138 9.648383256087081 9.482483579828857 0 0 0
199 1 3.9948599624298233 6.8549638411025535 9.585592941093106 0 0 0
200 1 4.063223251418272 9.427229076952866 6.7257805151664725 0 0 0
202 1 5.405480369022361 8.1104764136667 8.159950085534021 0 0 0
205 1 6.759676715677035 6.765647018822555 6.777600452206038 0 0 0
206 1 6.7155028283567395 9.498189837356525 9.55103322757652 0 0 0
207 1 9.460163502002036 6.963784643747981 9.524784006961838 0 0 0
208 1 9.470550186811137 9.452315471214966 6.68829610718384 0 0 0
210 1 10.836556195292305 8.254949828364039 8.134321731362691 0 0 0
213 1 12.107956433245022 6.858744254074199 6.744413071366011 0 0 0
214 1 12.248523236136947 9.519044084539264 9.376118179976567 0 0 0
215 1 14.932356357491766 6.840617088672283 9.387469517236855 0 0 0
216 1 15.127325781244807 9.54275207544218 6.696603932852161 0 0 0
218 1 16.370948304685268 8.13352829726497 8.177547450262821 0 0 0
221 1 17.694173575721752 6.7983192485494035 6.73730674836802 0 0 0
222 1 17.716317803379997 9.478907573225571 9.56686638058157 0 0 0
223 1 20.369834360294824 6.719708684185416 9.473010032966824 0 0 0
224 1 20.452700450138586 9.48842435005029 6.8324883810670425 0 0 0
226 1 21.720457498972017 8.029284111997127 8.098152038635217 0 0 0
229 1 23.089813208166518 6.666282797594845 6.685735021611434 0 0 0
230 1 23.03425809434924 9.398464103540045 9.51797154055725 0 0 0
231 1 25.658092280492486 6.7023475429546195 9.465063399198131 0 0 0
232 1 25.687857208846754 9.469059521103185 6.75957910471344 0 0 0
234 1 27.046329572620596 8.149622550418501 8.145697236527813 0 0 0
237 1 28.418950597922596 6.765898020365872 6.7352631817565785 0 0 0
238 1 28.52298386282648 9.415828985138276 9.507969368104598 0 0 0
194 1 0.022320558344105734 8.194601312257554 8.234038363156044 0 0 0
239 1 31.338683106139328 6.674138831663245 9.35795744448797 0 0 0
240 1 31.241427870878674 9.485644820919935 6.693800631741108 0 0 0
243 1 2.7489004428042834 10.867652656693277 8.082197766712675 0 0 0
245 1 1.3300311839168075 12.19805731451338 6.774226694995955 0 0 0
247 1 4.030451293907985 12.22945887641823 9.55593871836117 0 0 0
251 1 8.156892250510358 10.827527197670546 8.13055706348629 0 0 0
253 1 6.808412575911579 12.2007661155456 6.702724097039316 0 0 0
255 1 9.511621728928315 12.248157661588136 9.461595945460228 0 0 0
259 1 13.696637851845916 10.893744966396909 7.982273072925874 0 0 0
261 1 12.281278677665146 12.147283737409492 6.627306461128704 0 0 0
263 1 14.984609901020928 12.213661420163062 9.502644513303899 0 0 0
269 1 17.702432171691772 12.18382637745252 6.768740197481451 0 0 0
267 1 19.070741730606834 10.847293728507603 8.184772316762592 0 0 0
271 1 20.428276910793794 12.310241661140354 9.456591516222915 0 0 0
277 1 23.161877379915886 12.171413060945792 6.804617414280749 0 0 0
275 1 24.430159042994966 10.76846052078071 8.249229391966393 0 0 0
279 1 25.828640564598334 12.154781174335975 9.567719177810707 0 0 0
285 1 28.514591996010108 12.201277965252231 6.722672394351657 0 0 0
283 1 29.837902131428038 10.760859606884098 8.09806518240307 0 0 0
287 1 31.223818776640904 12.177075168224729 9.486167160465552 0 0 0
246 1 1.2933929973173852 14.946880549518527 9.529590410379846 0 0 0
248 1 3.97416427335505 14.978889743286379 6.797715690218745 0 0 0
250 1 5.434471626690485 13.535507136236848 8.099001767140155 0 0 0
254 1 6.726996593285652 14.897260804167304 9.394955112364354 0 0 0
1019 1 8.151306487863641 16.222906544991663 8.058211182038491 0 0 0
256 1 9.576076424593023 14.994227119870775 6.766058670153706 0 0 0
258 1 10.910058670759758 13.459346684901758 8.070814344105486 0 0 0
1027 1 13.608619813043823 16.253131110751706 8.103157201172728 0 0 0
262 1 12.226676794240404 14.917926846656055 9.42502464361136 0 0 0
264 1 15.013333580467183 14.898159258037326 6.76632655119683 0 0 0
266 1 16.394201735427714 13.516345545738709 8.148682080645047 0 0 0
270 1 17.691976478799205 15.02838739602079 9.499274982880591 0 0 0
1035 1 19.04289658585005 16.270044214433398 8.14192039532837 0 0 0
272 1 20.420509705801916 15.010527781882978 6.776820941125869 0 0 0
274 1 21.823024737405287 13.620682866139585 8.048303029155866 0 0 0
278 1 23.180174226105414 14.82604577571594 9.515371470223881 0 0 0
1043 1 24.399930831825948 16.260737491568403 8.180619027750422 0 0 0
280 1 25.720413078319535 14.939799690269856 6.771176676957042 0 0 0
282 1 27.108660097892137 13.580603730874106 8.094846118365636 0 0 0
286 1 28.418471499337237 14.967006517171505 9.384828065123445 0 0 0
242 1 -0.024014269882187023 13.56906517166002 8.04265201745211 0 0 0
288 1 31.106268975462417 14.972439964274248 6.754974794132581 0 0 0
292 1 2.703819523883567 2.7240224275035287 10.926149207033532 0 0 0
293 1 1.3600939482842318 1.344635897344371 12.19835441091725 0 0 0
300 1 8.05474623854519 2.7273849653295144 10.859314664429773 0 0 0
301 1 6.768109286019251 1.3615159321327917 12.09382215228078 0 0 0
305 1 10.906698382635597 0.030426999432238963 10.788632129889402 0 0 0
308 1 13.486982087586325 2.721951271117838 10.769373496201242 0 0 0
309 1 12.219124513950417 1.4134043699992664 12.157698002653074 0 0 0
313 1 16.282805476008484 0.040262260873207334 10.927475236246588 0 0 0
317 1 17.595239884108917 1.3002911933534926 12.299607354699317 0 0 0
316 1 18.95613220281858 2.664818266367857 10.86134969360421 0 0 0
325 1 22.96852521597188 1.303143078067517 12.192491719489773 0 0 0
324 1 24.35495144287038 2.6209834827725356 10.915459433126728 0 0 0
329 1 27.061054416976983 -0.022375971175083657 10.860262857624187 0 0 0
333 1 28.402999195077545 1.1845844904187133 12.300452043747436 0 0 0
289 1 32.60461600887717 -0.007825689442441598 10.892239817445189 -1 0 0
332 1 29.748633318250036 2.628496703483282 10.930057375329445 0 0 0
296 1 4.114891339265787 4.083214108274537 12.233624824868013 0 0 0
345 1 5.384870035125546 5.525252907815658 10.884525208772859 0 0 0
304 1 9.470909343124342 4.13413841071567 12.185918956850495 0 0 0
353 1 10.839874113567753 5.485737904336013 10.801835617243594 0 0 0
312 1 14.961814286667256 4.0807985101812365 12.132628070941445 0 0 0
361 1 16.24945888477893 5.487696581241547 10.813059351183893 0 0 0
320 1 20.204414693957634 4.035779747579438 12.233537799116736 0 0 0
369 1 21.654586995333762 5.301466127203236 10.847756920703606 0 0 0
328 1 25.785643251602487 3.982001160573764 12.206137173471388 0 0 0
377 1 27.111226432149156 5.4087084658577895 10.789501837977797 0 0 0
337 1 32.54742140433772 5.4102764473599345 10.879074305003586 -1 0 0
336 1 31.144221208456624 3.9672744766015957 12.248139484431585 0 0 0
340 1 2.6543334719396356 8.253857037243824 10.83480982843656 0 0 0
341 1 1.296998962221724 6.847925955863573 12.21254835608031 0 0 0
344 1 3.9869265716414866 9.561078053482202 12.280028087541703 0 0 0
348 1 8.10888934278838 8.24951532563929 10.849556139740141 0 0 0
349 1 6.808184520052311 6.854923303380642 12.185792449935139 0 0 0
352 1 9.487602285939628 9.447711632891876 12.162891647069078 0 0 0
356 1 13.609175375917632 8.202680104788554 10.743358910858154 0 0 0
357 1 12.186604010133898 6.781321038424435 12.109520632343578 0 0 0
360 1 14.926718246424914 9.525763199524459 12.245080804264179 0 0 0
365 1 17.66232573432094 6.709198650975184 12.240516964733455 0 0 0
364 1 19.08227049777897 8.14029242287261 10.88853758656841 0 0 0
368 1 20.335865228650075 9.518170835024911 12.227458805473479 0 0 0
373 1 23.010898891133653 6.779770545276974 12.153310482085859 0 0 0
372 1 24.364842784019388 8.05138559025457 10.831017415588356 0 0 0
376 1 25.733827136384374 9.36868240794217 12.262210110417652 0 0 0
381 1 28.505663694327342 6.624081654118725 12.210022675317719 0 0 0
380 1 29.882931319253327 7.945215057861842 10.79270710431129 0 0 0
384 1 31.199265304014258 9.47995564200302 12.183992059796875 0 0 0
389 1 1.3831330279663767 12.317092907645785 12.32810780509819 0 0 0
393 1 5.3799584667544655 10.854623775730095 10.901806292350756 0 0 0
397 1 6.782058740632924 12.243496569312263 12.231192690089426 0 0 0
401 1 10.83387734922177 10.85274246765963 10.804255589051461 0 0 0
405 1 12.251254050781428 12.28602791104255 12.144489627324617 0 0 0
409 1 16.268694213853596 10.8372273918223 10.831462287528003 0 0 0
413 1 17.685392764176886 12.301283096609822 12.100878468633422 0 0 0
417 1 21.754597766803492 10.830269929077485 10.839069156599015 0 0 0
421 1 23.09991627453511 12.126054293817408 12.244158672934773 0 0 0
425 1 27.14432676987279 10.768291440051746 10.881762419334482 0 0 0
429 1 28.586986348138975 12.158835247071082 12.161030400212566 0 0 0
385 1 32.5653788028174 10.917058211092824 10.951381106072096 -1 0 0
388 1 2.7018791510793374 13.661282978041285 10.895843623582575 0 0 0
891 1 19.03768332895068 16.206713568497882 2.693449974292953 0 0 0
392 1 4.1137655505199735 14.985221045187451 12.175758931910263 0 0 0
396 1 8.112409704226797 13.506175656825457 10.759222292598663 0 0 0
1169 1 10.809623207654425 16.201952077412468 10.77808034031091 0 0 0
400 1 9.514186387138546 14.802613678100052 12.186731780827383 0 0 0
404 1 13.571301664468633 13.613848030355207 10.767181204059737 0 0 0
408 1 14.89503784082968 15.00733264684228 12.171568616776522 0 0 0
412 1 19.159040080883095 13.692857383624368 10.788114895886627 0 0 0
416 1 20.511806963139097 14.92232089731274 12.180636893290412 0 0 0
1185 1 21.8612523355835 16.27096853702628 10.809456088521435 0 0 0
420 1 24.497623591547374 13.510149020772358 10.948221519051481 0 0 0
424 1 25.898995086480756 14.887690557357143 12.223849048684487 0 0 0
398 1 6.666882248273492 14.922456996606204 14.935099171567792 0 0 0
1163 1 8.095699116339773 16.21797347147707 13.666862096719607 0 0 0
428 1 29.888804213276465 13.597834393551238 10.783548667569296 0 0 0
432 1 31.245451516101838 14.984457808208271 12.113164849594545 0 0 0
290 1 32.58468006559894 2.6484171564278864 13.573058937258317 -1 0 0
291 1 2.6970435416035152 0.004224898678792121 13.563369816941028 0 0 0
295 1 4.134895902936428 1.3349661019897263 14.949976785928582 0 0 0
298 1 5.551435303417187 2.699037132141398 13.547186429954941 0 0 0
303 1 9.443240069618096 1.3204034074065305 14.813088475820091 0 0 0
306 1 10.854456056788877 2.7591220376638703 13.516118448471524 0 0 0
307 1 13.538081420269483 0.008870778864060397 13.482335776015347 0 0 0
311 1 14.986841344015232 1.2848759072743428 14.893852487151031 0 0 0
314 1 16.27669297716729 2.700931216071305 13.553159552425496 0 0 0
457 1 16.35622553646032 0.020704823569001846 16.259065670579922 0 0 0
394 1 5.326963693168994 13.53154780125737 13.577134606508112 0 0 0
319 1 20.349063628890317 1.3829362618958363 15.02878115118284 0 0 0
390 1 1.237770976378651 14.995196391691904 14.94021963916265 0 0 0
322 1 21.574845533835596 2.650644933559937 13.532016840197121 0 0 0
386 1 32.5389045933891 13.709092537191877 13.55420037257907 -1 0 0
327 1 25.724126271596894 1.3334681214866013 14.906056849540375 0 0 0
468 1 24.330445940094023 2.717350355123334 16.12837685183464 0 0 0
330 1 27.15346419337789 2.6734881148935314 13.6053179709327 0 0 0
331 1 29.813727604479002 -0.010070253534177008 13.732822827609255 0 0 0
335 1 31.16507426903088 1.3710853908849323 14.979700546552605 0 0 0
427 1 29.941840589789464 10.79299958394927 13.600810430020934 0 0 0
294 1 1.338377002021053 3.996460838804944 14.969644353596442 0 0 0
339 1 2.701292997693321 5.458284741998814 13.570256969795283 0 0 0
431 1 31.190745258522373 12.257925361285677 14.89317702661076 0 0 0
302 1 6.677076428225461 4.139430248737577 14.966487904751542 0 0 0
347 1 8.141333378496956 5.480276199175088 13.574057545238876 0 0 0
310 1 12.195199415440962 4.0146901361355525 14.932026652126257 0 0 0
355 1 13.540516493771541 5.330574456257894 13.500723487649244 0 0 0
318 1 17.5676666538044 4.055911018877831 15.03195865567051 0 0 0
363 1 18.88675698143031 5.3720391983294595 13.706308614305938 0 0 0
326 1 22.955279054114357 4.043114053159829 14.839377808268802 0 0 0
371 1 24.409438931821327 5.42087446440928 13.538286815787462 0 0 0
334 1 28.5219134012676 4.083721989108005 15.01555565788869 0 0 0
419 1 24.40887504794997 10.741707975101585 13.602016793173998 0 0 0
379 1 29.85787913553933 5.434697358146149 13.690167427617514 0 0 0
481 1 0.06010376067683865 5.436175021525618 16.17258402973124 0 0 0
338 1 32.560901522742405 8.24635851103274 13.548857607509792 -1 0 0
342 1 1.2154236248708226 9.593548291456278 14.909225058185195 0 0 0
484 1 2.619180538508318 8.13429431482643 16.22997629759465 0 0 0
343 1 4.0812769139973115 6.754515837131641 14.956075760301985 0 0 0
346 1 5.436947195023108 8.144132929173631 13.630888640252811 0 0 0
350 1 6.798142665180671 9.530992006585732 14.993814261017686 0 0 0
423 1 25.798548856188848 12.17756150805302 14.857712496263149 0 0 0
351 1 9.593352655415067 6.778340083435212 14.995943973091997 0 0 0
354 1 10.924232064274102 8.102625421328675 13.54815933999253 0 0 0
358 1 12.223074286321413 9.480298145394263 14.920240395103333 0 0 0
500 1 13.615512610695113 8.09096700370284 16.2633616138719 0 0 0
359 1 14.926193810621227 6.651392363958371 14.867644048270549 0 0 0
362 1 16.26757371171025 8.04954214387344 13.630460488122566 0 0 0
366 1 17.707956622680655 9.480381105274923 14.88664023782703 0 0 0
367 1 20.377507518212244 6.78877863224184 14.921467189924556 0 0 0
561 1 21.71434300871161 11.026598145507583 16.239677834833074 0 0 0
370 1 21.736062384335145 8.176983144826742 13.464539629517036 0 0 0
374 1 23.02880731649971 9.469715081880985 15.053012708021651 0 0 0
375 1 25.762849896303003 6.734564393161268 14.89212318786644 0 0 0
378 1 27.165682131263498 8.029889805894479 13.590624529492294 0 0 0
382 1 28.493771735533212 9.430364978587884 14.86293096547701 0 0 0
383 1 31.327136921824394 6.8501084718039404 14.921307951043918 0 0 0
524 1 29.944196767549105 8.168383646003777 16.227232747817727 0 0 0
387 1 2.6312876575675737 10.879636074609714 13.646756691443997 0 0 0
415 1 20.246500555634316 12.355696644260385 14.91180705902111 0 0 0
391 1 3.9631116495010126 12.20141120168164 15.04065691726848 0 0 0
395 1 8.208291359910097 10.841164935310388 13.581594531564956 0 0 0
399 1 9.623431711929484 12.15861129579967 15.00343139204688 0 0 0
411 1 18.994116079612688 10.948798817870601 13.541615993479642 0 0 0
403 1 13.538919123725405 10.873090464944697 13.565442523164984 0 0 0
407 1 14.965557451001583 12.090131728029096 14.943848802097754 0 0 0
444 1 8.093864486938065 2.659422802983284 16.181869963242033 0 0 0
905 1 27.12980551361198 16.212596534480387 -0.013968579680565085 0 0 0
452 1 13.560329323325794 2.651236895071989 16.208449486442163 0 0 0
513 1 21.655916318834137 5.36172844013422 16.28820313637017 0 0 0
516 1 24.435540085588624 8.135285531454615 16.2444237101516 0 0 0
569 1 27.185122548536544 10.791554956189293 16.182749633509108 0 0 0
1313 1 10.84830403686536 16.270668303021424 16.288436253398856 0 0 0
9 1 5.368116955659032 0.01585281982285721 -0.02285571069023007 0 0 0
20 1 13.585244278528963 2.6973997839873523 0.011676400083516114 0 0 0
81 1 21.770307031944768 5.364691809373888 -0.006769956329641502 0 0 0
76 1 19.060348246561553 8.126286759870407 0.02770218590150364 0 0 0
97 1 -0.017012928027588158 10.818501492678333 -0.001544584069286259 0 0 0
121 1 16.291228553377973 10.870897517654893 -0.011396299624969686 0 0 0
449 1 10.813961215027637 0.09714557160796744 16.275602601076912 0 0 0
433 1 -0.007381200650304451 0.06782895376286724 16.360647041577696 0 0 0
435 1 2.5787711081499984 0.01876509757854735 19.118427415420292 0 0 0
436 1 2.6857059530591028 2.6304130394175016 16.357709504433746 0 0 0
437 1 1.32626510466276 1.4399386256614317 17.83349239467952 0 0 0
818 1 -0.018006351964622525 13.502402255877017 29.815016227875553 0 0 0
442 1 5.477769665023597 2.6653498557968387 19.01855642308093 0 0 0
1627 1 30.027883845728528 16.256033254585954 29.815377568969957 0 0 0
731 1 8.173870656147079 -0.012831740289527716 29.881443674175877 0 0 0
445 1 6.810294549309094 1.27545990813823 17.63469464860599 0 0 0
450 1 10.868948824459046 2.7286627175141245 18.844506845895562 0 0 0
723 1 2.6046945978017257 -0.010936314132251823 29.90857984781235 0 0 0