LAMMPS data file via write_data, version 19 Nov 2024, timestep = 60100, units = metal

1728 atoms
1 atom types

-0.010796249447682982 32.590796249447564 xlo xhi
-0.010796249447682982 32.590796249447564 ylo yhi
-0.010796249447682982 32.590796249447564 zlo zhi

Atom Type Labels

1 Si

Masses

1 28.0855

Atoms # atomic

2 1 0.07002868935279384 2.665679118771748 2.7036202712598394 0 0 0
572 1 29.823989191900395 13.652119892642634 16.194467216786382 0 0 0
299 1 8.11499664875079 0.052674589227002855 13.51274351967945 0 0 0
5 1 1.3790093856973882 1.3312590148747405 1.3121129881510836 0 0 0
10 1 5.303008652023846 2.7098749600095404 2.716400562875664 0 0 0
11 1 8.10554340127234 0.048113446268931014 2.7590095800998453 0 0 0
12 1 8.114660421441682 2.7313896040224117 0.056392240855759716 0 0 0
13 1 6.629155375755151 1.3579401451870456 1.437184605470565 0 0 0
17 1 10.870733358999484 0.0981457269702146 0.01530738586868987 0 0 0
18 1 10.89329001361963 2.8021490013254033 2.7916312290424914 0 0 0
21 1 12.252287657032678 1.4345407298056108 1.355171359617224 0 0 0
26 1 16.337904029524406 2.7852316409844735 2.6713625680273423 0 0 0
29 1 17.634337858863635 1.360402116208756 1.3860045647982655 0 0 0
1195 1 29.899676438941203 16.200428360118067 13.559007105435297 0 0 0
34 1 21.668031354700762 2.67334406863353 2.687943303067883 0 0 0
37 1 23.096886908618217 1.278525847531477 1.3300464570225243 0 0 0
426 1 27.124612553785326 13.628235941011226 13.522684725317042 0 0 0
36 1 24.449902370088296 2.582264258392554 0.0225646900882485 0 0 0
1171 1 13.621438458558103 16.230379869818517 13.509831462121664 0 0 0
42 1 27.135886178165425 2.5943903344072416 2.728511638911424 0 0 0
45 1 28.547141508010625 1.2133349507839812 1.419640945305867 0 0 0
430 1 28.528280543390498 15.007572244441075 14.850761220786838 0 0 0
49 1 0.08850101543217181 5.388650984165413 0.011746508340587613 0 0 0
51 1 2.6622701940156985 5.525733832585123 2.774431985195476 0 0 0
8 1 3.9589601815849296 4.14256535108886 1.379896171470689 0 0 0
57 1 5.286930391011754 5.385595505680301 -0.0026684614935687033 0 0 0
59 1 8.014590219105292 5.375359751791375 2.6205217572619106 0 0 0
16 1 9.521070923161636 4.059103200805853 1.3449658851562183 0 0 0
67 1 13.540469566317494 5.460269809424228 2.681777889610528 0 0 0
24 1 15.08466650950852 4.207695785034848 1.3681058931542383 0 0 0
305 1 10.815832183675843 0.041475883241133715 10.791114844930453 0 0 0
32 1 20.371923452828618 4.033421667609903 1.3113495966213013 0 0 0
75 1 19.02139740462657 5.4424922295262155 2.687558203378124 0 0 0
40 1 25.8185637182087 3.9972979827101143 1.280284384233093 0 0 0
83 1 24.49100870354668 5.287415274447373 2.7174687310499106 0 0 0
48 1 31.228376472367277 4.0196787302153725 1.3712548098974737 0 0 0
91 1 29.903548535284127 5.413843887986147 2.7266207738442665 0 0 0
52 1 2.6786610173785794 8.219568494096542 0.04819309302193865 0 0 0
53 1 1.3536228136895982 6.829782794134967 1.374358979662972 0 0 0
56 1 4.089736417812385 9.461264453408806 1.5014102658203394 0 0 0
58 1 5.404712611570357 8.079711986448965 2.5982295415595003 0 0 0
179 1 24.409578523932073 0.0261746210632694 8.10054167761394 0 0 0
61 1 6.694128762687658 6.738305775011348 1.2761276494794633 0 0 0
64 1 9.440860547377273 9.416665317719374 1.1811207357927278 0 0 0
66 1 10.836185622673263 8.233397118174455 2.6990935288958204 0 0 0
69 1 12.157324020353471 6.888846426486919 1.3746228391112463 0 0 0
72 1 15.077926521024008 9.548791001491724 1.4178842161730552 0 0 0
74 1 16.349044831816904 8.147206698765377 2.715292472122361 0 0 0
77 1 17.66779485913445 6.781684458392283 1.3444317018051892 0 0 0
169 1 16.332777284822633 0.0257878206619111 5.437509338671754 0 0 0
80 1 20.49334874789178 9.402232442140344 1.3078500065220484 0 0 0
82 1 21.86851194847737 8.093598784654677 2.774843838316184 0 0 0
85 1 23.137484635347533 6.759533480044174 1.3098681309259648 0 0 0
27 1 19.001473664473366 0.029370227279166272 2.6616211056933516 0 0 0
88 1 25.82143012279857 9.412335825840602 1.285038042443057 0 0 0
90 1 27.068507237743617 8.15130596426488 2.7401091713251744 0 0 0
93 1 28.43904274931255 6.652197471127802 1.3369792086580348 0 0 0
50 1 32.5820608018144 8.238561092363861 2.7467319847009306 -1 0 0
96 1 31.063982456538763 9.496003341522187 1.4244355090899306 0 0 0
99 1 2.7406891583838147 10.900662230397995 2.7541723307629713 0 0 0
101 1 1.4704257790733357 12.299179232275444 1.3408238107308295 0 0 0
323 1 24.314455038052497 0.07116527927406935 13.590459488060297 0 0 0
107 1 8.182632232998927 10.78848165231432 2.6104215823321195 0 0 0
109 1 6.87661410761496 12.07348608596992 1.300204402236354 0 0 0
19 1 13.51404282685845 0.010324153685878912 2.7255072286611255 0 0 0
115 1 13.746049960074703 10.862096056089198 2.79076696525428 0 0 0
117 1 12.323004320428945 12.18356815890199 1.297778838226193 0 0 0
907 1 29.958445538431448 16.222440922485884 2.7714632626961753 0 0 0
125 1 17.719963962646794 12.13826713484122 1.328621158412212 0 0 0
123 1 19.081660765452586 10.781000275543068 2.8018584220111795 0 0 0
133 1 23.05140706748079 12.268498435488096 1.3060515196302298 0 0 0
131 1 24.418279904574323 10.884025795799438 2.634205859081579 0 0 0
141 1 28.472713993639086 12.283623959588612 1.3749970613515041 0 0 0
139 1 29.77132358336138 10.887386870251119 2.7493933683799883 0 0 0
98 1 0.05409219068069322 13.476213297421587 2.8297049726567662 0 0 0
104 1 4.048273327690166 14.962833875210132 1.3506626729097382 0 0 0
106 1 5.495800047766931 13.498897330610626 2.5824917526034983 0 0 0
875 1 8.146345367894124 16.222381985653314 2.7326428731440817 0 0 0
112 1 9.531008046954094 14.857616826053185 1.2958330386639323 0 0 0
114 1 10.90683942793105 13.525155165446174 2.6600379576108786 0 0 0
873 1 5.443239872695271 16.268134532609995 0.03963210854680195 0 0 0
883 1 13.590281641253899 16.161671460210805 2.6294654772758674 0 0 0
120 1 14.970554532316449 14.806334520548777 1.335080843056181 0 0 0
122 1 16.388703640339248 13.529071330006117 2.7191671776535986 0 0 0
124 1 19.036602660999566 13.519061705304251 -0.005433294849793643 0 0 0
128 1 20.35696996678654 14.977221358818568 1.4218623470926615 0 0 0
130 1 21.725661680340416 13.556512569212481 2.7589540489407587 0 0 0
132 1 24.48065431905693 13.573398952588269 0.01868454253537605 0 0 0
136 1 25.84845718744211 14.96818002332469 1.3445780199557498 0 0 0
138 1 27.161617580113834 13.568291593067414 2.7537658230838757 0 0 0
144 1 31.27668605704832 14.784335018540517 1.4546059645591896 0 0 0
418 1 21.678540596404996 13.650643989164768 13.550627479723522 0 0 0
148 1 2.687847387875107 2.6853640398480936 5.4530842048834485 0 0 0
7 1 4.0636989675439 1.2625652381379584 4.0961831210124515 0 0 0
156 1 8.04553474731421 2.694544884065128 5.412446013898138 0 0 0
15 1 9.499329368810198 1.3882320552273897 4.044176401172456 0 0 0
164 1 13.582088964877281 2.6583593127185523 5.453052584483656 0 0 0
23 1 15.011794521346445 1.3125178064907577 4.014755912532536 0 0 0
31 1 20.321387073191964 1.3441299404469378 4.001679014570732 0 0 0
172 1 19.056937678128822 2.6650349835531886 5.44620468649168 0 0 0
39 1 25.722694341217583 1.3167035298026135 4.0621414637392075 0 0 0
180 1 24.356211390252927 2.743463882593248 5.368973976960827 0 0 0
47 1 31.29170428849907 1.3359554399615052 4.163624888970243 0 0 0
188 1 29.949318329845642 2.6740118570632725 5.478786075118554 0 0 0
6 1 1.2987323160927629 4.0615263815241 4.0493244551096685 0 0 0
201 1 5.330219612487955 5.462231613042106 5.4374765062354244 0 0 0
14 1 6.649457101712165 4.119157871249889 4.097646282546387 0 0 0
209 1 10.838487050772377 5.462080902841269 5.443140883212161 0 0 0
22 1 12.275270594742112 4.14848831325756 4.1116848457255415 0 0 0
30 1 17.713405096849662 4.100198932667598 4.087159546937425 0 0 0
217 1 16.24776612999717 5.490471637923713 5.343109506681036 0 0 0
38 1 23.059729149674627 3.9504560816153282 3.9561379722597225 0 0 0
225 1 21.738559524675548 5.308320473450455 5.434393336316179 0 0 0
46 1 28.527408821204848 4.022769126085295 4.14650231772513 0 0 0
233 1 27.102085693352937 5.32877630002754 5.463668154572757 0 0 0
193 1 0.04901038168362959 5.3740339330087155 5.419672593572927 0 0 0
54 1 1.3647351340706704 9.46939438386273 4.1011312940850475 0 0 0
196 1 2.6609215803475483 8.108034622590333 5.481975111094662 0 0 0
55 1 4.079657179698926 6.805060641051434 4.049393875052291 0 0 0
62 1 6.761336991130836 9.449410409008586 3.9009918756486655 0 0 0
204 1 8.188674285720712 8.130581353773774 5.37341084310706 0 0 0
63 1 9.440472606626614 6.758275420046603 4.045390920822248 0 0 0
70 1 12.209184081922837 9.533606438723435 4.028950747132736 0 0 0
212 1 13.540867110149668 8.174277176531424 5.383019650027747 0 0 0
71 1 14.955963910052539 6.835134764231613 3.987204030234642 0 0 0
78 1 17.733416777240702 9.433761345554975 4.110569581862223 0 0 0
79 1 20.397001581950274 6.735518909273469 4.051997204770923 0 0 0
220 1 19.108418597862975 8.107844608171195 5.392692824727213 0 0 0
86 1 23.147366670604995 9.460286626275309 4.1010538946810575 0 0 0
87 1 25.75114009694769 6.72683851441315 4.0717284827209586 0 0 0
228 1 24.467646365021466 8.080030888161254 5.497811266620868 0 0 0
94 1 28.425033516333283 9.430256275856035 4.045309318664668 0 0 0
95 1 31.34793644667155 6.787170102549856 4.136307107356633 0 0 0
236 1 29.764810942938155 8.08905928204207 5.396488822033986 0 0 0
103 1 4.089697331364709 12.307399477836604 4.090262787643422 0 0 0
249 1 5.4359846652657655 10.90555092173885 5.363857044787358 0 0 0
111 1 9.464798701636521 12.16406376343684 3.9868512880920077 0 0 0
257 1 10.863772211338162 10.879522705473267 5.399594614220573 0 0 0
119 1 15.084407486477065 12.230986081745058 4.161210852551837 0 0 0
265 1 16.375838603654184 10.826650253502528 5.484586115574916 0 0 0
127 1 20.424016000981574 12.181712985414512 4.147376148783731 0 0 0
273 1 21.842899773275477 10.814239144054408 5.4461499186344 0 0 0
135 1 25.75225619878891 12.210619792033757 4.125556321733232 0 0 0
281 1 27.104089860591575 10.866760584621458 5.463608948183771 0 0 0
241 1 0.0015585383634117989 10.861041601916646 5.41548492740594 0 0 0
143 1 31.177351821018036 12.214362719611183 4.133450381694108 0 0 0
102 1 1.347574635634729 14.923859348967868 4.138470867634558 0 0 0
244 1 2.7094677441648862 13.666128727310804 5.576537605303353 0 0 0
422 1 23.12403918583441 14.932860109436064 14.92178478561113 0 0 0
410 1 16.425964613129278 13.617804611116593 13.645361151552775 0 0 0
110 1 6.790323924329412 14.86825627089446 4.074457009351698 0 0 0
252 1 8.13643488971454 13.49943526883106 5.369791221951705 0 0 0
414 1 17.704535054158768 14.991305582451979 14.962543449622979 0 0 0
118 1 12.119034911342622 14.884928088792591 4.019444218560049 0 0 0
260 1 13.634221564000605 13.61577583875461 5.391114906933684 0 0 0
126 1 17.813692606222986 14.917967524390253 4.030203177293778 0 0 0
415 1 20.432850399356795 12.200352924223592 14.958053272470352 0 0 0
268 1 19.120874407056252 13.58233633919643 5.439920285966027 0 0 0
134 1 23.124411386369985 15.000589225283282 4.10313256747294 0 0 0
406 1 12.234576116438088 14.85182029856524 14.93036554632807 0 0 0
276 1 24.486402455741935 13.707137518831283 5.460125396153988 0 0 0
142 1 28.475980497006834 14.982354840636846 4.071826953696713 0 0 0
411 1 19.02863302833221 10.837991295231165 13.577387018394749 0 0 0
284 1 29.778513293561733 13.681662869249102 5.530122258931681 0 0 0
149 1 1.3131302014797226 1.259046203807998 6.900670116977093 0 0 0
151 1 4.036479891775942 1.3476740344803346 9.493362579108014 0 0 0
154 1 5.395527683276262 2.660741634044163 8.227618241521771 0 0 0
155 1 8.141931617729545 0.03906229483094924 8.104708888371112 0 0 0
157 1 6.7290631008580615 1.3398559627786568 6.888194474826492 0 0 0
159 1 9.479726299702529 1.398145992578354 9.323381058590037 0 0 0
162 1 10.841137600886595 2.792175612953757 8.09495524897862 0 0 0
163 1 13.584644636198725 0.012732809696365095 8.127708637497534 0 0 0
165 1 12.149809442253055 1.371839900723237 6.804168707567356 0 0 0
167 1 14.943341670812739 1.33764666153811 9.549050859655695 0 0 0
170 1 16.18638529587778 2.635869254534812 8.112289214169579 0 0 0
173 1 17.690848594158307 1.2742565764960023 6.7699172088874215 0 0 0
175 1 20.34184632588352 1.248996414489707 9.574408197692513 0 0 0
178 1 21.693489887631298 2.6847294928803342 8.095537423007173 0 0 0
181 1 23.103556896260233 1.3002426737630504 6.742882131925547 0 0 0
183 1 25.714066502618333 1.2979528246569452 9.52891431991053 0 0 0
186 1 27.147339997766 2.5412370101074115 8.114177965658316 0 0 0
189 1 28.588092431159524 1.273546825897473 6.733024444161229 0 0 0
146 1 32.52559658906739 2.6353265627559854 8.153766395056751 -1 0 0
402 1 10.856773700790663 13.59128857493487 13.591328240219044 0 0 0
191 1 31.14368641815021 1.2589023685305423 9.476951762864264 0 0 0
150 1 1.3465931913129314 4.041599878277301 9.498062422824773 0 0 0
195 1 2.7331866685205926 5.408955007394935 8.168232623894367 0 0 0
152 1 4.04331604642708 4.107348660384198 6.782276451421139 0 0 0
158 1 6.7439183800406655 4.076251076560702 9.520222654194313 0 0 0
203 1 8.093702979525895 5.424452787871979 8.195042950943387 0 0 0
160 1 9.377228912894186 4.128587172117513 6.740601854101 0 0 0
166 1 12.211680867299759 4.170738206842771 9.54155905084657 0 0 0
211 1 13.635132236034732 5.382174306783523 8.14618451171737 0 0 0
168 1 14.908899410221919 4.063703292451016 6.8074754645846 0 0 0
174 1 17.567565197083056 4.0338768216176915 9.516549784631849 0 0 0
176 1 20.312384986780692 4.120887915874723 6.8736319482168025 0 0 0
219 1 18.851404079138028 5.458719385515126 8.130339120590616 0 0 0
182 1 23.008725976215867 4.002041814448674 9.565882572912164 0 0 0
184 1 25.747241540681575 3.9795405755213573 6.783043154357487 0 0 0
227 1 24.363954044179597 5.291380347360664 8.177071455150783 0 0 0
190 1 28.423017749703995 3.9781303318203087 9.499126735082173 0 0 0
192 1 31.183722135698932 4.074468811944863 6.797915236570437 0 0 0
235 1 29.760815111789228 5.3373924028161985 8.220825382518502 0 0 0
197 1 1.3107963114021548 6.768520758133042 6.813437864240642 0 0 0
198 1 1.3177088524586134 9.46265334257624 9.453754404278618 0 0 0
199 1 4.057771061574198 6.8073242484427725 9.514517751538797 0 0 0
200 1 4.051224630576514 9.575946079733708 6.810170764223322 0 0 0
202 1 5.37842151783494 8.285065133474824 8.163754058560295 0 0 0
205 1 6.785788908982832 6.844452072293501 6.825555927874216 0 0 0
206 1 6.747341112689366 9.652676056948689 9.555214464999915 0 0 0
207 1 9.490474616929378 6.741237415112227 9.485351515867418 0 0 0
208 1 9.55946795799183 9.5643563217156 6.796916971897385 0 0 0
210 1 10.887644177112385 8.068314582790888 8.117857658984859 0 0 0
213 1 12.371294328831953 6.798510482710946 6.748916015653723 0 0 0
214 1 12.317130512452133 9.488462269107151 9.427897482340919 0 0 0
215 1 14.919370651268101 6.7532539449912905 9.518517067227194 0 0 0
216 1 14.881791720057794 9.535329416841746 6.707854558819102 0 0 0
218 1 16.22631560653797 8.244134602637743 8.094085698175029 0 0 0
221 1 17.603135435711533 6.838256513225079 6.698631439971614 0 0 0
222 1 17.6896431068334 9.477715732262274 9.381380984401146 0 0 0
223 1 20.183306769903854 6.838092279811145 9.428405971193834 0 0 0
224 1 20.400477700523155 9.543848234787362 6.818837576632801 0 0 0
226 1 21.644806471405474 8.207582640765555 8.178560624469691 0 0 0
229 1 23.03592050539607 6.751795477544202 6.806945530097399 0 0 0
230 1 23.069900204277445 9.40135750584885 9.50345819253171 0 0 0
231 1 25.715173496074563 6.62847619250914 9.468016160086705 0 0 0
232 1 25.817738340274236 9.45380296723028 6.865871233165368 0 0 0
234 1 27.124208692119975 8.039199114072995 8.215592241308709 0 0 0
237 1 28.51816993055183 6.694759674468261 6.824690344132024 0 0 0
238 1 28.46901784997899 9.43698291934721 9.48777955160113 0 0 0
194 1 32.5230322853802 8.05915162134262 8.096337945804095 -1 0 0
239 1 31.180224886468643 6.771215788387516 9.490651300009628 0 0 0
240 1 31.155486306035968 9.476801963254951 6.713149475183884 0 0 0
243 1 2.669733790724514 10.91034582673025 8.1565299021583 0 0 0
245 1 1.2978808364952115 12.327647386210312 6.915259664891963 0 0 0
247 1 4.050969262167403 12.296790530016578 9.53815215591765 0 0 0
251 1 8.130731063553155 10.848209024323484 8.079718220489575 0 0 0
253 1 6.761050108382653 12.276118366728236 6.82275944493478 0 0 0
255 1 9.512679793330436 12.16180049816486 9.443523052608619 0 0 0
259 1 13.570789610243434 10.899310248709185 8.106991032336031 0 0 0
261 1 12.209275629085322 12.214796705399541 6.766018205088855 0 0 0
263 1 15.021515914161848 12.218564035298092 9.405607029675428 0 0 0
269 1 17.688298207218406 12.290426635353066 6.779900089154823 0 0 0
267 1 18.98028810322495 10.801379326112324 8.056586517970205 0 0 0
271 1 20.445012380496138 12.038049097214454 9.56509151864854 0 0 0
277 1 23.203117840970158 12.312394734300605 6.810400477649753 0 0 0
275 1 24.446333117391344 10.812065971292494 8.235911186714539 0 0 0
279 1 25.862195897223994 12.242151692325542 9.445674345205308 0 0 0
285 1 28.39366608227424 12.29178288007923 6.813838043578933 0 0 0
283 1 29.78963702658297 10.86304977014343 8.12273679048527 0 0 0
287 1 31.133141057999342 12.13388122499998 9.476643369271889 0 0 0
407 1 15.003927272709499 12.301781589435508 14.893555868148507 0 0 0
246 1 1.3508171214813127 15.017925031070055 9.50771258584782 0 0 0
248 1 4.069122633144634 14.99708272991669 6.89408569218869 0 0 0
250 1 5.492656478697052 13.56439673861039 8.150763758961782 0 0 0
398 1 6.812676355283465 14.899259680734643 15.054225496406008 0 0 0
254 1 6.836657845109217 14.983598853812374 9.558745076889926 0 0 0
256 1 9.40924213177249 14.91432655082053 6.818268202506913 0 0 0
258 1 10.884810882987423 13.646687218072968 8.126776850902084 0 0 0
1163 1 8.197931866785282 16.225563441946257 13.579564611482054 0 0 0
262 1 12.29989714331493 14.973087749161872 9.42781116234018 0 0 0
264 1 14.92245771228025 15.005575486410644 6.738268286826691 0 0 0
266 1 16.29341264327633 13.622561731281086 8.062596296990694 0 0 0
270 1 17.737427912876875 14.81033025209643 9.409738417784602 0 0 0
403 1 13.707170741170678 10.956389567328307 13.55319566248586 0 0 0
272 1 20.494955555281383 14.924053380488486 6.844651851350209 0 0 0
274 1 21.774056563185802 13.519932700460409 8.316890649412008 0 0 0
278 1 23.09384034587482 15.081334984679296 9.471020950922751 0 0 0
394 1 5.383861304988879 13.564809416633915 13.566683746971968 0 0 0
280 1 25.81287978524769 15.006499968750813 6.752343076648448 0 0 0
282 1 27.113629055300585 13.695692859319236 8.123271006611382 0 0 0
286 1 28.54204081636402 14.985674031726564 9.492939253775583 0 0 0
545 1 10.903426429378648 10.88372149027604 16.275014551352903 0 0 0
242 1 32.4683868039844 13.63012673683486 8.282465596020936 -1 0 0
288 1 31.21084402543496 15.022631469972218 6.913865029942246 0 0 0
292 1 2.7126063684583785 2.7290177229203203 10.904840249740719 0 0 0
293 1 1.2917830605664522 1.3642903289919621 12.286467778279285 0 0 0
297 1 5.495782480202846 0.02377885935068761 10.895259283983657 0 0 0
300 1 8.232167922157295 2.7929652190494085 10.877027156600365 0 0 0
301 1 6.6910270627128625 1.3811174222863387 12.212517937854459 0 0 0
308 1 13.556551277774537 2.7336420704537563 10.868695705256428 0 0 0
309 1 12.220175406475498 1.3319767485832426 12.219237558550708 0 0 0
386 1 0.008055752852201756 13.552306561507404 13.624724944607912 0 0 0
317 1 17.640092580247398 1.2668610859745673 12.189941805207756 0 0 0
316 1 18.94057785731389 2.669346268031641 10.862939232989058 0 0 0
390 1 1.3979546124540267 14.887201595750104 14.930284879156254 0 0 0
325 1 22.902208315369002 1.378088875707051 12.283417015795072 0 0 0
324 1 24.36876828869289 2.615916852548523 10.902777646807584 0 0 0
329 1 27.087072112353674 0.024526291858747776 10.893670439425842 0 0 0
333 1 28.53509345541156 1.344497277420419 12.21542911967099 0 0 0
427 1 29.753224121551685 10.859113236402592 13.402653434468071 0 0 0
332 1 29.941519903048825 2.702249647268866 10.866408364739476 0 0 0
337 1 -0.009770999699453314 5.404653491748714 10.79324631543244 0 0 0
296 1 4.019589383201624 4.102115800690698 12.244651942247463 0 0 0
345 1 5.467157236851427 5.424330569107686 10.948884574385135 0 0 0
304 1 9.470247105901318 4.15274635041156 12.244409688712283 0 0 0
353 1 10.843251643651849 5.501479479119131 10.89657472994127 0 0 0
312 1 14.958161180689899 3.998820558797777 12.341460660376208 0 0 0
361 1 16.280932361049256 5.410064941731701 10.861658396914482 0 0 0
320 1 20.25583623074588 4.162721209020777 12.255984394516306 0 0 0
369 1 21.623875913781717 5.473923591004351 10.868993299432196 0 0 0
328 1 25.685656276517467 4.040382575389329 12.224384275439652 0 0 0
377 1 27.09700992250309 5.303995840679603 10.873356738632879 0 0 0
336 1 31.273385278966664 4.014958559649735 12.157275118888814 0 0 0
340 1 2.705933897340059 8.139369540143568 10.831222882424104 0 0 0
341 1 1.2588901803005292 6.894095462993556 12.171972213460819 0 0 0
344 1 4.109463224835484 9.575564563255574 12.178591230723129 0 0 0
348 1 8.214020997914712 8.16346183195428 10.808050069453234 0 0 0
349 1 6.724368999560282 6.8581016038524325 12.194567081262353 0 0 0
352 1 9.639078918598875 9.430277590661838 12.144031477223562 0 0 0
356 1 13.582707429797955 8.08088866190253 10.868126901826194 0 0 0
357 1 12.224054555594394 6.845457262645475 12.215448126980348 0 0 0
360 1 14.9504014678009 9.500214434351834 12.096151092520078 0 0 0
365 1 17.596812370665127 6.779067462246632 12.187442865795743 0 0 0
364 1 18.950367199743795 8.163136239439908 10.843455477269243 0 0 0
368 1 20.422645909179344 9.475277056872882 12.269867039236752 0 0 0
373 1 23.088949966584952 6.754520275855963 12.2246245596149 0 0 0
372 1 24.477648128873987 7.9606620458498245 10.80353531077751 0 0 0
376 1 25.67157360958134 9.453870941641952 12.084518169702532 0 0 0
381 1 28.51619253963388 6.685122307227535 12.172468668543825 0 0 0
380 1 29.835944866044727 8.180216831526646 10.821787102973133 0 0 0
384 1 31.213124665796368 9.487925522199642 12.186418078432682 0 0 0
385 1 32.58093150595671 10.857380609612738 10.81222412733575 -1 0 0
389 1 1.343291343189444 12.203289261918275 12.123314396367409 0 0 0
393 1 5.426964170103589 11.008624460298613 10.899467959026913 0 0 0
397 1 6.808372553695929 12.25675595877002 12.226049309229195 0 0 0
401 1 10.981683058059227 10.912695755711361 10.77878215104642 0 0 0
405 1 12.292973491536737 12.213818484234043 12.195094267511013 0 0 0
409 1 16.41046075164484 10.875950730306307 10.75015345968473 0 0 0
413 1 17.72051888414944 12.203112697851072 12.229208685007396 0 0 0
417 1 21.850676951199862 10.748791197232512 10.946915819922552 0 0 0
421 1 23.084446258963133 12.295611628714218 12.175823482682262 0 0 0
425 1 27.1365344933328 10.832765433243734 10.789967067122163 0 0 0
429 1 28.366958869376464 12.254296590425476 12.111845712805234 0 0 0
388 1 2.72610323235383 13.70653345157371 10.820282183150123 0 0 0
431 1 31.116068949948556 12.171778087255708 14.838203229729334 0 0 0
392 1 4.0021754375063825 14.97084985810169 12.181328195623113 0 0 0
396 1 8.216286496703903 13.57986216203056 10.876620256859763 0 0 0
1169 1 10.836895414297482 16.198481750324966 10.852318297240105 0 0 0
400 1 9.503112802917073 14.83257382247784 12.210867841410925 0 0 0
404 1 13.654859917461565 13.51999692051308 10.817126940184178 0 0 0
569 1 27.129166072598565 10.748325500149491 16.20795780797486 0 0 0
408 1 15.021905782289007 14.866613573734618 12.237868529847608 0 0 0
412 1 19.10046730413238 13.463896634454365 10.810085294534419 0 0 0
416 1 20.37638921187297 14.99294863411149 12.205807323741812 0 0 0
420 1 24.491568339136258 13.63986006075993 10.722998185736698 0 0 0
424 1 25.880765585973695 15.106229908240794 12.122384550609606 0 0 0
419 1 24.43066863934659 10.825957872481304 13.535763689887832 0 0 0
423 1 25.811046704797516 12.255154953738812 14.98594059898026 0 0 0
428 1 29.889499109316755 13.555463139230882 10.80141567552342 0 0 0
432 1 31.270520716955218 14.858694701997818 12.23136288847932 0 0 0
290 1 0.008332036811270148 2.789906695580725 13.682812320971228 0 0 0
291 1 2.788102713901915 0.05567836612961155 13.592177006686455 0 0 0
295 1 4.030344145554169 1.3057480157333408 14.962943978811973 0 0 0
298 1 5.358710041404171 2.7622300433669436 13.560451328652746 0 0 0
303 1 9.525531586848443 1.3346992872426027 14.85517953251504 0 0 0
306 1 10.814442538914644 2.71834189478597 13.647285366712325 0 0 0
399 1 9.5242739310415 12.228276477949832 14.987040651447767 0 0 0
395 1 8.199443847376337 10.814364626198792 13.487428924749262 0 0 0
311 1 14.860470620755173 1.3053360146891122 14.968768460182908 0 0 0
314 1 16.285432124160614 2.6372877691589958 13.610985378799283 0 0 0
315 1 19.02362414109868 0.015063568283353155 13.487693943845315 0 0 0
319 1 20.301711705797757 1.3327935282135293 14.858426552004286 0 0 0
322 1 21.610639235041315 2.819818231338615 13.589540154214948 0 0 0
327 1 25.791633672098126 1.4120360574597264 14.977834178528228 0 0 0
330 1 27.121046224439983 2.7396080782560195 13.630450845787415 0 0 0
331 1 29.951097504228372 -0.0035805183231082073 13.609608198469598 0 0 0
335 1 31.318162360452817 1.3944327823813443 14.977933525673047 0 0 0
391 1 4.057896268435517 12.19625293968479 14.908848055511214 0 0 0
294 1 1.220654080478651 4.321414774487672 15.021151975531838 0 0 0
339 1 2.664540442817565 5.516456424691436 13.62751280535752 0 0 0
387 1 2.768549549951679 10.948435879262744 13.48489698278032 0 0 0
383 1 31.22370252054689 6.829415647765027 14.994905822440023 0 0 0
302 1 6.789979204196769 4.056650738983862 14.905463720552525 0 0 0
347 1 8.139525936457483 5.45482423928809 13.605136473279257 0 0 0
382 1 28.45721085419043 9.428707525572607 14.783361054442624 0 0 0
310 1 12.158924640591051 4.115107592580812 14.870829740622568 0 0 0
355 1 13.528490481794243 5.500154067348474 13.604830594661376 0 0 0
318 1 17.66086511091415 4.033127316962333 14.96169604811096 0 0 0
363 1 18.880480777382978 5.464819715038595 13.603487548743185 0 0 0
326 1 23.020501451667474 4.056164974396507 14.96446514736927 0 0 0
378 1 27.13382834970859 8.120315992874442 13.461942111210954 0 0 0
371 1 24.39421673386061 5.296248354989137 13.58013967460419 0 0 0
334 1 28.55035900398059 4.048949274526787 14.895970697709012 0 0 0
521 1 27.264990321292117 5.393885041612028 16.247342405075848 0 0 0
379 1 29.98897663361665 5.3889804466496 13.532918746008441 0 0 0
338 1 32.567320373623446 8.150103575735038 13.587170420559833 -1 0 0
342 1 1.3901797933168016 9.493528921362715 14.90270929104521 0 0 0
343 1 4.111671741021989 6.853946889236156 14.945849905701065 0 0 0
346 1 5.498786357125382 8.285638935609567 13.582483632348206 0 0 0
350 1 6.825421838913144 9.544155462098528 14.991297572312112 0 0 0
351 1 9.513202485185904 6.894040767659804 14.882227340388544 0 0 0
354 1 10.97169159532104 8.243697014688832 13.585351229826701 0 0 0
358 1 12.336937223906988 9.588780369157234 15.006860817837802 0 0 0
359 1 14.972544323133926 6.906431206751229 14.947063930587374 0 0 0
362 1 16.29642650517671 8.126884533813094 13.543654549462445 0 0 0
366 1 17.542477317648007 9.52134989827854 14.899956594160097 0 0 0
367 1 20.286902462772776 6.812280295185685 15.007007140046035 0 0 0
370 1 21.74191979358739 8.150740533233739 13.734665607747576 0 0 0
374 1 23.073922841283135 9.559451714999648 14.992867757771956 0 0 0
375 1 25.725461228385214 6.730490896960302 14.887379484018991 0 0 0
140 1 29.76610670410899 13.598388297730182 0.10278406298516529 0 0 0
436 1 2.6279870931808804 2.8156329361391554 16.24462875403065 0 0 0
444 1 8.176312202879364 2.7260459792748213 16.276020550161928 0 0 0
465 1 21.646989301815147 0.10629308673714064 16.21384762434738 0 0 0
889 1 16.33233032401472 16.222099303170317 -0.008853288425726191 0 0 0
505 1 16.29725428943913 5.4308127305363625 16.18821707339189 0 0 0
484 1 2.8841295705281493 8.247891627425403 16.28237256599071 0 0 0
516 1 24.427019040451963 8.103002826115683 16.27618602783304 0 0 0
537 1 5.49818282337878 10.931551406750923 16.286171331905674 0 0 0
553 1 16.273028078321843 10.868004392510343 16.278669231958542 0 0 0
529 1 32.55466404402523 10.819409538806896 16.113584666600087 -1 0 0
556 1 19.104509769803872 13.634527154983486 16.253018676585242 0 0 0
108 1 8.182556971784594 13.46493185032184 0.0046386706400980415 0 0 0
97 1 32.53227748110663 10.910730174752905 0.06060140328397523 -1 0 0
137 1 27.13336302628026 10.860253794017176 -0.00024666560191377584 0 0 0
20 1 13.678944196101437 2.781739444643567 0.047328414554215215 0 0 0
44 1 29.90508006013054 2.633275859926604 0.08880407844667104 0 0 0
65 1 10.896474296885998 5.407923943404353 0.007970561657366204 0 0 0
81 1 21.78839264646259 5.326272368503743 -0.002314717497846175 0 0 0
68 1 13.638368295302655 8.286403510621701 0.0833187221139795 0 0 0
433 1 0.020791280960973782 0.07389439285066965 16.328043513263005 0 0 0
1619 1 24.409969698176084 16.262158264574506 29.915021755987436 0 0 0
897 1 21.649510214011702 16.15918828023383 32.58589971158158 0 0 -1
437 1 1.3891899869903086 1.4035413601938307 17.67142924949235 0 0 0
442 1 5.432763777520914 2.7378219406290194 19.023338114775378 0 0 0
1611 1 18.900647160122126 16.211836284128054 29.833420099750587 0 0 0
445 1 6.717983509482061 1.3658703524200966 17.618876529104206 0 0 0
450 1 10.763209318057724 2.665841593545622 19.02541474677074 0 0 0
453 1 12.205259211215791 1.3500156315339258 17.630505239520012 0 0 0
458 1 16.271268119761586 2.7201796687692674 19.019339919310795 0 0 0
461 1 17.63676110644944 1.2580032076834926 17.757260464877348 0 0 0
460 1 19.04382193108585 2.661247017056209 16.42267493276783 0 0 0
737 1 10.878603439970295 0.05011362145462073 27.162024859481107 0 0 0
466 1 21.68224724612268 2.7406734590430855 18.968675518378454 0 0 0
469 1 22.988281808089127 1.3884925217968804 17.611105013682504 0 0 0
858 1 27.12134271747788 13.555631053364523 29.87249677481389 0 0 0
468 1 24.412320115086157 2.748763374807799 16.291738722614454 0 0 0
473 1 27.23966326189489 0.03649100769311011 16.35934228418943 0 0 0
474 1 27.15240362755518 2.781561303066696 19.0378060519085 0 0 0