LAMMPS data file via write_data, version 19 Nov 2024, timestep = 60100, units = metal

1728 atoms
1 atom types

-0.023534685255206966 32.60353468525609 xlo xhi
-0.023534685255206966 32.60353468525609 ylo yhi
-0.023534685255206966 32.60353468525609 zlo zhi

Atom Type Labels

1 Si

Masses

1 28.0855

Atoms # atomic

2 1 0.0736282715038058 2.8294804873567423 2.725763291831748 0 0 0
3 1 2.7352908167702332 0.046492872027424186 2.7009667080587474 0 0 0
5 1 1.3485344397525623 1.383153715254794 1.3595490775895571 0 0 0
1187 1 24.481379526449356 16.279516713813848 13.43475484517711 0 0 0
10 1 5.508507452588498 2.692930204707162 2.7097479560920767 0 0 0
1163 1 8.204810761547652 16.20574080606139 13.6412485880625 0 0 0
13 1 6.800732355817043 1.2184330149133802 1.2690210197787113 0 0 0
18 1 10.750143028142459 2.7128224904206237 2.700452723150448 0 0 0
20 1 13.673983825076247 2.7976981808360595 0.06811799402090302 0 0 0
21 1 12.174864892441308 1.4386419449233845 1.3275233771538257 0 0 0
1195 1 29.907888047609227 16.252486897870877 13.606780776836935 0 0 0
26 1 16.259741582122793 2.655054743185643 2.661437657134986 0 0 0
29 1 17.563459874591835 1.2997388096321651 1.3170398091944784 0 0 0
28 1 18.95597763455417 2.7806749185089226 0.012497526192204936 0 0 0
34 1 21.878639966603657 2.735273017825228 2.6550713577797156 0 0 0
37 1 23.10519316769811 1.2873561735856212 1.3405726511788323 0 0 0
35 1 24.353367379971107 0.012761096911946657 2.734893205933653 0 0 0
36 1 24.49391227326758 2.6939806833439714 0.0825528428037805 0 0 0
42 1 27.19221276600606 2.8284942049288713 2.694827381441181 0 0 0
45 1 28.549103494569945 1.4326232693114065 1.4140759271012004 0 0 0
51 1 2.7455708289105556 5.413590306855452 2.7061035355147642 0 0 0
8 1 4.028963011672879 3.9709715568157176 1.3725322042764256 0 0 0
59 1 8.047335796923251 5.408285283139556 2.621426907097997 0 0 0
16 1 9.408243985953028 4.086851512502014 1.289956840082337 0 0 0
65 1 10.89228245811695 5.462511132319318 0.053350744849372876 0 0 0
67 1 13.574294435455545 5.365739438796331 2.6669192913845876 0 0 0
24 1 15.004346014446533 4.103009354524988 1.3478634019198044 0 0 0
321 1 21.905434199328035 0.02934183200280671 10.819005301144076 0 0 0
32 1 20.493287124315906 4.151049491948101 1.2726633563008884 0 0 0
75 1 19.098538799239424 5.518580626250236 2.6771850150415695 0 0 0
40 1 25.7152606988574 4.323530490429358 1.2783729338719763 0 0 0
83 1 24.377339423970714 5.442903012756587 2.7116102023905464 0 0 0
89 1 27.24346589197599 5.497553240041145 0.01536655102401862 0 0 0
48 1 31.31795808489303 4.074790911881155 1.383958204942644 0 0 0
91 1 30.015932354666877 5.360427849540092 2.7742936997943506 0 0 0
50 1 -0.022175766714125997 8.281166044190073 2.665076948070059 0 0 0
53 1 1.2748815971292755 6.791069238942683 1.3617339134165853 0 0 0
56 1 4.049957143248926 9.66646014759557 1.2770388387100338 0 0 0
58 1 5.3407698253059035 8.215153800937609 2.642761048413001 0 0 0
61 1 6.706514396515779 6.752573434479775 1.24266784746714 0 0 0
64 1 9.463853392774697 9.391263249250882 1.3475479465684783 0 0 0
66 1 10.786638143772997 8.0452344755993 2.685046066737681 0 0 0
1161 1 5.322348493442717 16.218769689010983 10.976660819613427 0 0 0
69 1 12.341511372351258 6.8320231942520815 1.3130835333616642 0 0 0
72 1 14.892834618294868 9.52330315031965 1.5341116361299836 0 0 0
74 1 16.28676374290476 8.150897056311065 2.839668473926442 0 0 0
77 1 17.713118136293318 6.892833371456517 1.3844842166010005 0 0 0
147 1 2.6184616815358943 0.05121701914467991 8.094006864245891 0 0 0
80 1 20.243597517904487 9.499889087661893 1.3548260302179633 0 0 0
82 1 21.735664121805513 8.128536457147062 2.6661480117173384 0 0 0
85 1 23.073823230744125 6.802564994841616 1.315604870116187 0 0 0
84 1 24.417037268394942 8.151513433580826 0.049478328221765316 0 0 0
88 1 25.816033485175407 9.459284554558451 1.3148639033918397 0 0 0
90 1 27.15296928843275 8.119277102121776 2.626595325530618 0 0 0
93 1 28.689146376486704 6.716170861136835 1.41163900546891 0 0 0
96 1 31.312096388284225 9.592297415257908 1.2161045259931875 0 0 0
99 1 2.7585647706433503 10.83386574482585 2.7350660916781737 0 0 0
101 1 1.497596862790223 12.336055025987871 1.521158200777242 0 0 0
107 1 8.010833757338027 10.75246913775987 2.7536753844691204 0 0 0
109 1 6.796612176583297 12.143713376384571 1.322413469724664 0 0 0
115 1 13.58833494696447 11.015734498398857 2.8690410898281957 0 0 0
117 1 12.306752836304245 12.163304894505258 1.390531566322508 0 0 0
121 1 16.223425527178662 10.666083793903542 0.04960823703555874 0 0 0
125 1 17.427389335800274 12.22037595828271 1.375269690488269 0 0 0
123 1 18.88451810799081 10.838796233693751 2.687280213009376 0 0 0
133 1 23.002547558479133 12.148515537541435 1.4214939870593453 0 0 0
131 1 24.465836441036295 10.77891633393885 2.6805879459136235 0 0 0
141 1 28.487323235350168 12.274488069325797 1.1842707095621485 0 0 0
139 1 29.811913899168427 10.900339263990407 2.6816913299190936 0 0 0
867 1 2.61166818266799 16.282804929283664 2.6343657710899078 0 0 0
104 1 4.06210942059262 14.92519326909837 1.471516612655936 0 0 0
106 1 5.5393818993584 13.62200268033974 2.7249745236215275 0 0 0
112 1 9.386543467032954 14.890517105647156 1.42593838307745 0 0 0
114 1 10.858282729331552 13.600406001317511 2.6334202646209497 0 0 0
883 1 13.560467581220133 16.286735835167544 2.71124176859678 0 0 0
889 1 16.2322668923102 16.255459372459992 0.07597533953661012 0 0 0
120 1 14.855146864982109 14.935401892884654 1.3453257903142675 0 0 0
122 1 16.207297058253296 13.604250015701597 2.803395136053966 0 0 0
891 1 18.976383484969368 16.2821283296749 2.742652754350594 0 0 0
128 1 20.298157833894283 14.929661749822735 1.3705114112166625 0 0 0
130 1 21.664330245412945 13.458895386714802 2.7531683301977012 0 0 0
132 1 24.298116757974906 13.49171750865028 0.022423463496557574 0 0 0
136 1 25.713479254970288 14.824157920619193 1.3460322934247635 0 0 0
138 1 27.173848919325327 13.614966320162042 2.709513724229219 0 0 0
907 1 29.905122240335636 16.181895933272596 2.804836020072804 0 0 0
98 1 -0.002212891944886053 13.657553111527333 2.759757461099738 0 0 0
144 1 31.287817644312625 15.066068072065702 1.4093843949556097 0 0 0
148 1 2.79968495788268 2.745745791416203 5.449111196356066 0 0 0
7 1 4.0647676847562995 1.3788105098091512 4.026338973945791 0 0 0
156 1 7.987476127736437 2.6544778301045207 5.531139246315739 0 0 0
15 1 9.414875536273714 1.361275213716653 4.107290298321636 0 0 0
164 1 13.618500126508408 2.7847183404964575 5.401395469676146 0 0 0
23 1 14.897953678108564 1.3117222870009158 4.036855836346421 0 0 0
31 1 20.31170047850435 1.3652506461437965 3.903806298488428 0 0 0
172 1 19.024528423671473 2.8840317652333822 5.257982842601607 0 0 0
177 1 21.70485259617884 0.08390321623385504 5.3864735409143485 0 0 0
39 1 25.868051127998033 1.3981295645817289 3.9991191672281143 0 0 0
180 1 24.539613595166518 2.86640970928173 5.388830687602388 0 0 0
47 1 31.244975232806848 1.3885552770366254 3.9303144671797123 0 0 0
188 1 29.87836624768601 2.7193259178223497 5.403647811324628 0 0 0
6 1 1.385422646105967 4.148275440295978 4.058027215686698 0 0 0
193 1 0.012432602319777077 5.476234085666249 5.504467486175348 0 0 0
201 1 5.344517697155322 5.418759648191241 5.407043958661249 0 0 0
14 1 6.759358883759998 4.0183714032430435 4.133833446541145 0 0 0
209 1 10.773264805158446 5.335561250670467 5.311491913903925 0 0 0
22 1 12.182830008748486 4.110629724272123 3.9000159912161068 0 0 0
30 1 17.582652004623515 4.11647766639091 3.8650803276753067 0 0 0
217 1 16.318745073947298 5.524999921791281 5.297985427275804 0 0 0
38 1 23.083105204067785 4.034601226275514 3.9821553216325847 0 0 0
225 1 21.79219524863685 5.410855458740093 5.383822235837731 0 0 0
46 1 28.55341118395601 4.187745258390104 4.062503109036005 0 0 0
233 1 27.192965101242805 5.555157455258897 5.419587046912527 0 0 0
54 1 1.3971122314345574 9.54648649982368 4.107657329511642 0 0 0
196 1 2.7315659568861816 8.275967031328895 5.4904906637558195 0 0 0
55 1 4.061957651291002 6.880434342140721 4.057046382152469 0 0 0
62 1 6.717872593327526 9.54645829054064 4.075466401648541 0 0 0
204 1 8.108665757876803 8.066617616280134 5.424211635198132 0 0 0
63 1 9.420150421400324 6.751058081306042 4.045095886932252 0 0 0
70 1 12.247810439787946 9.534712793193968 4.044083346638248 0 0 0
212 1 13.521758460978976 8.180782529210582 5.400889092864431 0 0 0
71 1 14.847926276004761 6.821578159205101 4.047801956037434 0 0 0
78 1 17.641149885360345 9.425114558052973 4.094762316463835 0 0 0
79 1 20.484388437010068 6.900981168915295 4.162358020914355 0 0 0
220 1 18.954285025457203 8.089478591944427 5.474790587723713 0 0 0
86 1 23.081722362006147 9.450679175886258 3.986222237890334 0 0 0
87 1 25.734474038052667 6.773084234791094 4.065745158230747 0 0 0
228 1 24.348316668334025 8.188135142368393 5.3845564151062115 0 0 0
94 1 28.461342389835085 9.52651391973052 4.009860023037645 0 0 0
95 1 31.269448611151116 6.867751295772831 4.086951046322787 0 0 0
236 1 29.897836832309135 8.21211815133724 5.450810124009631 0 0 0
241 1 0.03634398136881695 10.960063281514579 5.540298467214066 0 0 0
103 1 4.189981626231484 12.129769633555716 4.133111680994639 0 0 0
249 1 5.543639837548479 10.802559884611888 5.53419456513625 0 0 0
111 1 9.543968414047637 12.116590709809426 4.035314414365486 0 0 0
257 1 10.905332525437423 10.848132000133969 5.3652956237398435 0 0 0
119 1 14.883744019409052 12.329584909698713 4.254327890587423 0 0 0
265 1 16.383431589201564 10.893299644219804 5.436923687605672 0 0 0
127 1 20.250287020777826 12.118370596581428 4.079055743344062 0 0 0
273 1 21.761485069225404 10.71753194323532 5.361588590632331 0 0 0
135 1 25.8197479895891 12.259266865174645 4.059607019571736 0 0 0
281 1 27.19383965247516 10.855876330448977 5.422184447070892 0 0 0
143 1 31.309263742532035 12.244044549369633 4.017189704682631 0 0 0
1009 1 32.562440715312015 16.213709327318504 5.515802184165779 -1 0 0
102 1 1.3978110314809873 15.007610268409838 4.202381491293963 0 0 0
244 1 2.8283295251460396 13.516868943349143 5.432010854894921 0 0 0
110 1 6.837473713617749 14.969152594321532 4.11532391890465 0 0 0
252 1 8.257485352939563 13.518504025055474 5.358637944248032 0 0 0
426 1 27.287453469326593 13.679391674395905 13.557401215621079 0 0 0
118 1 12.252585506054206 14.889846509354918 4.0042421323280415 0 0 0
260 1 13.474289237146628 13.677190140659294 5.481500233299774 0 0 0
430 1 28.565476498199693 14.962417527327904 14.94719075845483 0 0 0
126 1 17.67496101240981 14.974141721691867 4.217804440555437 0 0 0
268 1 19.07316433395365 13.482425720152555 5.541236036912691 0 0 0
1329 1 21.77588578060729 16.26492834620053 16.282679388881004 0 0 0
134 1 22.99493596022956 14.965847801088186 4.076871806336651 0 0 0
276 1 24.415671203878457 13.6284359976547 5.360757171208711 0 0 0
1049 1 27.131289130222665 16.26782356951694 5.273632396448153 0 0 0
142 1 28.531361406785365 14.898010095218186 4.1150293990743005 0 0 0
284 1 29.84223597164458 13.468666024934855 5.485695126524385 0 0 0
146 1 0.011277300929667234 2.7614711854284595 8.236745429286355 0 0 0
149 1 1.248341731117998 1.361373390448164 6.733905379610115 0 0 0
151 1 4.0025468930851975 1.294238031404776 9.493483139765194 0 0 0
154 1 5.343888294856494 2.604161487373316 8.21774665572277 0 0 0
418 1 21.68877320137162 13.562916862804325 13.605098065321203 0 0 0
157 1 6.757886575734184 1.2872326170695332 6.865303338369348 0 0 0
159 1 9.59122053158713 1.2614998877655783 9.52470017617067 0 0 0
162 1 10.956324287378381 2.588843848887458 8.089406569704236 0 0 0
163 1 13.53066883393581 0.030622231441732803 8.166053479928026 0 0 0
165 1 12.287251716964732 1.3391528665964447 6.648623454441661 0 0 0
167 1 15.038052469663665 1.2942712899693802 9.434176650711203 0 0 0
170 1 16.442476581367888 2.7711545204814887 8.011259583810729 0 0 0
173 1 17.72956115508059 1.4286452786201027 6.6122458668876565 0 0 0
175 1 20.35828819189575 1.2760248075608407 9.371045069736146 0 0 0
178 1 21.712919255970196 2.6572665807370113 8.012001724796924 0 0 0
181 1 23.14876361803813 1.4549576356604252 6.612350249906914 0 0 0
179 1 24.44042585349645 0.011421293253069387 7.9699226718023475 0 0 0
183 1 25.77198407753432 1.3532223912142674 9.477382507026007 0 0 0
186 1 27.128227859926074 2.7231660972787166 8.098598989354626 0 0 0
189 1 28.57040315918894 1.3787368498338097 6.826338267810606 0 0 0
187 1 29.874029267084122 0.011541127399621544 8.151167442785939 0 0 0
191 1 31.296514864081423 1.2655204930630661 9.481048823816378 0 0 0
150 1 1.3884313784776818 4.0736292531110765 9.542920253645889 0 0 0
195 1 2.7225324368356163 5.394247899697848 8.16334739935167 0 0 0
152 1 4.101558968086631 4.028189488100451 6.8582115379031725 0 0 0
158 1 6.783147208582672 3.9713235423490967 9.46642969828712 0 0 0
203 1 8.148464051176072 5.401252232898311 8.12242248606195 0 0 0
160 1 9.538412035740395 3.9789297768471035 6.8384045558344235 0 0 0
166 1 12.2536672936406 3.963815519307938 9.480212687838906 0 0 0
211 1 13.574543465656301 5.445992578838695 8.083261529129661 0 0 0
168 1 15.063025531055468 4.13333872004395 6.645900893770929 0 0 0
174 1 17.656923829689127 4.107092368034089 9.442211036069304 0 0 0
176 1 20.390026167645264 4.139322651519107 6.726815440728119 0 0 0
219 1 19.02434623106517 5.568630957023607 8.143425166816668 0 0 0
182 1 23.02699645125865 4.041994018217678 9.441190091485744 0 0 0
184 1 25.868593631543888 4.117564900457954 6.696050582543411 0 0 0
227 1 24.45546187408558 5.401858297950045 8.143730941240147 0 0 0
190 1 28.622381002244335 4.037978261392788 9.473777650974323 0 0 0
192 1 31.241518613915584 4.009842122384369 6.782298481160995 0 0 0
235 1 29.95303995043572 5.4032980860899995 8.072355383566322 0 0 0
194 1 0.026478462997300552 8.219328363833874 8.253989228896188 0 0 0
197 1 1.3990946012830943 6.751084903614344 6.855946270548927 0 0 0
198 1 1.4114535967635002 9.548613030978123 9.498874681472623 0 0 0
199 1 4.1559950122089875 6.656385501167521 9.631598006097928 0 0 0
200 1 4.0860392939915835 9.532347570878317 6.818086632927636 0 0 0
202 1 5.495550600711748 8.062139123794154 8.163478324127633 0 0 0
205 1 6.715873628630559 6.707480893869625 6.776533954878643 0 0 0
206 1 6.835376770835774 9.519485170320632 9.543496744873373 0 0 0
207 1 9.495039134824125 6.740485119298935 9.560305247765847 0 0 0
208 1 9.56747438804662 9.451952034243897 6.677174865210882 0 0 0
210 1 10.80582649005118 8.064596246810856 8.09520425685124 0 0 0
213 1 12.186312430399184 6.697108086641923 6.708867949014462 0 0 0
214 1 12.275439012871384 9.33903237595244 9.562384810009542 0 0 0
215 1 14.99931562870923 6.859262318958116 9.433010161733122 0 0 0
216 1 14.933009537018973 9.588885691571376 6.644995787378394 0 0 0
218 1 16.27724007889287 8.311692576763239 8.040460648691015 0 0 0
221 1 17.612807269712043 6.8016764133166765 6.746712622499513 0 0 0
222 1 17.54672950131263 9.641702743633411 9.500650103416199 0 0 0
223 1 20.293749980989134 6.882803818266685 9.57736158419668 0 0 0
224 1 20.430216013325822 9.43188159904709 6.81130906995239 0 0 0
226 1 21.76774856147477 8.219640159315729 8.232619734246317 0 0 0
229 1 23.11576990324516 6.815398392269587 6.851976120960701 0 0 0
230 1 23.196991787011104 9.5292966826699 9.543888178393575 0 0 0
231 1 25.842738635032816 6.755329143091098 9.502785165095958 0 0 0
232 1 25.743768422508015 9.529999036996768 6.724379020305894 0 0 0
234 1 27.115579096517266 8.05252075847676 8.090085918771111 0 0 0
237 1 28.538074974498905 6.799632880284516 6.7006640158067325 0 0 0
238 1 28.564760262825168 9.466281031563708 9.450756542989748 0 0 0
239 1 31.405513448164147 6.727737632169863 9.380623937080488 0 0 0
240 1 31.296300820846543 9.57323953363152 6.898111744890107 0 0 0
243 1 2.7315464057636727 10.933825138274175 8.166962319931889 0 0 0
245 1 1.4658782387593114 12.273944309687147 6.824741936719953 0 0 0
247 1 4.151245942534015 12.255276826177406 9.439741123964216 0 0 0
251 1 8.184474142081447 10.764158152723224 8.110570949189512 0 0 0
253 1 6.92227193454681 12.29450268591704 6.786754797700636 0 0 0
255 1 9.46190215132758 12.09784995597419 9.549537916189538 0 0 0
259 1 13.561146548291065 10.84072650113846 8.167347927156118 0 0 0
261 1 12.148665037329577 12.205452980920896 6.817295635847654 0 0 0
263 1 14.879228660497908 12.290968279105313 9.46616567119077 0 0 0
269 1 17.654537471464685 12.219925151917966 6.927772865557422 0 0 0
267 1 19.097165845909394 10.844520607212168 8.145993319144983 0 0 0
271 1 20.466495083976618 12.144209474323564 9.540472610796165 0 0 0
277 1 23.14458048038045 12.22859846990713 6.702381423973814 0 0 0
275 1 24.410393028582664 10.91252887771392 8.074826002038346 0 0 0
279 1 25.781170632825546 12.24427536473831 9.387329679260288 0 0 0
285 1 28.548724320279554 12.14498469071493 6.810031409566882 0 0 0
283 1 30.026300249285104 10.918536268868626 8.166442003223098 0 0 0
287 1 31.265765057161797 12.197818074319272 9.553397926119972 0 0 0
422 1 23.104132074721672 14.901342503425841 14.93360584884054 0 0 0
242 1 0.03780530629349987 13.512538233604939 8.261967882967227 0 0 0
246 1 1.3873710891926003 14.95061035592466 9.608500327482108 0 0 0
248 1 3.9540481287310554 14.971019409290571 6.889720472762726 0 0 0
250 1 5.4854485845760115 13.665763448017893 8.040261858308535 0 0 0
254 1 6.739330233496928 15.026244577242778 9.458417242061312 0 0 0
256 1 9.479194194122043 15.019779628498034 6.7434061618115155 0 0 0
258 1 10.684943306013043 13.55065600512962 8.122737020621875 0 0 0
262 1 12.10185983225064 14.999947727178007 9.333731147843563 0 0 0
264 1 14.76416403059351 15.007204092606457 6.793423574793398 0 0 0
266 1 16.17654166322782 13.6312534444423 8.135108761103014 0 0 0
270 1 17.63354435777909 14.959368872917599 9.579657873362153 0 0 0
307 1 13.672078260726533 -0.01755198944179881 13.582505840979694 0 0 0
272 1 20.412859047247977 14.886475669242442 6.859734552096835 0 0 0
274 1 21.839824247890554 13.60614519020526 8.158260842977814 0 0 0
278 1 23.115640657633776 14.900471033287703 9.546629867819206 0 0 0
280 1 25.825016377867254 14.911630434535407 6.718730043756384 0 0 0
282 1 27.262765968099846 13.590328923654392 8.108734048868866 0 0 0
286 1 28.539897257126494 15.00568579529199 9.543003412553936 0 0 0
414 1 17.625397056694002 14.85843218981079 14.92565865964123 0 0 0
288 1 31.135991880548357 14.838848011940044 6.902312266459816 0 0 0
292 1 2.692841597755302 2.682647056888785 10.941403469015867 0 0 0
293 1 1.3095579440627252 1.335709931542685 12.32767615801074 0 0 0
297 1 5.429357383325332 0.007645784291678246 10.877211270408349 0 0 0
300 1 8.20143083631551 2.6597562747611034 10.827288168106158 0 0 0
301 1 6.848898191004661 1.3466436530059265 12.16681775795454 0 0 0
1321 1 16.2511924324178 16.21317456233218 16.267871307659178 0 0 0
308 1 13.676456087011102 2.6845553527001202 10.838489586584657 0 0 0
309 1 12.324819139779066 1.35133768891781 12.256724628856269 0 0 0
317 1 17.701285250128542 1.2438462734228437 12.191955555491106 0 0 0
316 1 19.01229910401943 2.6973640013550155 10.856101687693537 0 0 0
325 1 23.131436711308265 1.4216213993449525 12.16599555498512 0 0 0
324 1 24.438321890470405 2.7864389231002407 10.831308248334148 0 0 0
333 1 28.494098616968024 1.3825895683415752 12.261634068616221 0 0 0
410 1 16.233994861656907 13.479130038055859 13.495032136895304 0 0 0
332 1 29.840710890020713 2.5528009028537224 10.756537726889489 0 0 0
296 1 3.9716046940333616 4.146377826580792 12.208401607663943 0 0 0
345 1 5.577423280081665 5.392900691857324 10.841336589889707 0 0 0
304 1 9.612441353680678 4.027539490716209 12.153246740205075 0 0 0
353 1 10.93629819187028 5.393215273342131 10.783882505830142 0 0 0
312 1 14.857596242610175 4.117335370575956 12.152096227611098 0 0 0
361 1 16.274814213377102 5.4126014533137194 10.800455455287002 0 0 0
320 1 20.473384248722464 4.063140280093433 12.15754468399145 0 0 0
369 1 21.682659363851794 5.415075299861849 10.773890859884155 0 0 0
328 1 25.922648650730057 4.139750799007996 12.17084782745865 0 0 0
377 1 27.25220906876935 5.46168869589895 10.688892390916429 0 0 0
337 1 -0.009561446228829595 5.361361087534679 10.866346092549726 0 0 0
336 1 31.11616410911936 3.936340002457555 12.270548118121024 0 0 0
340 1 2.697041714101507 8.151499144964253 10.833164553796996 0 0 0
341 1 1.3017083731580406 6.913406856696897 12.10680087281382 0 0 0
344 1 4.072590703789645 9.636285681667797 12.15564639974458 0 0 0
348 1 8.105423642505068 8.147620386811928 10.873550366000813 0 0 0
349 1 6.808724622062099 6.717300123576448 12.277222950898265 0 0 0
352 1 9.448407977803589 9.534061408252137 12.277589270901348 0 0 0
356 1 13.590494478490353 8.051287013734708 10.85777568951194 0 0 0
357 1 12.327747812602755 6.700709254103748 12.280898827356467 0 0 0
360 1 14.88258623160558 9.479278877963877 12.24337130342941 0 0 0
365 1 17.425058231615722 6.829959988744087 12.265040620754032 0 0 0
364 1 18.830176008525452 8.13935005501404 10.924971421868351 0 0 0
368 1 20.37940340138013 9.476444964602342 12.190964126880155 0 0 0
373 1 23.003826002016833 6.787683591413971 12.196254615238203 0 0 0
372 1 24.48990480519643 8.257858240687568 10.88726551295924 0 0 0
376 1 25.972926916536345 9.51404986663452 12.159418618354858 0 0 0
381 1 28.579754055631618 6.668098299000009 12.185294033811251 0 0 0
380 1 30.018147780595363 8.086671828352847 10.773890456243796 0 0 0
384 1 31.27065838856569 9.542764071198924 12.297604430171383 0 0 0
389 1 1.3385046709628206 12.258704548465614 12.229439707045595 0 0 0
393 1 5.45828159924492 10.97993282211957 10.837014166565856 0 0 0
397 1 6.763881548275699 12.29885752372514 12.30334997507716 0 0 0
401 1 10.94567441414787 10.854412724688192 10.931154632219462 0 0 0
405 1 12.305284762723414 12.332129292876397 12.148752375590256 0 0 0
409 1 16.154119042358847 10.975195415192175 10.81661851186013 0 0 0
413 1 17.64141356259932 12.1412501759977 12.242294478489718 0 0 0
417 1 21.802053318205143 10.84962748771142 10.860003137836046 0 0 0
421 1 23.175322699098803 12.172221971512231 12.398289600162052 0 0 0
425 1 27.21807663098729 10.908981925312775 10.776063053759763 0 0 0
429 1 28.580611055198148 12.303352549952079 12.073574416205384 0 0 0
385 1 -0.01433391520166083 10.857912820279545 10.889820252807342 0 0 0
406 1 12.41569951162555 14.987813811678029 14.983477836494586 0 0 0
388 1 2.7460910269801517 13.623348040843645 10.890799531212418 0 0 0
392 1 3.9633473893954267 14.890191535252647 12.37970213880545 0 0 0
396 1 8.172204478153498 13.574288223115156 10.931562900524618 0 0 0
400 1 9.601901663609114 14.932773946734343 12.240760137042875 0 0 0
404 1 13.492676645921675 13.660178626378057 10.77621068095268 0 0 0
402 1 11.007556414754303 13.616888684309876 13.551740817656485 0 0 0
408 1 14.881148896889469 14.933192908232249 12.099201815668861 0 0 0
412 1 18.968770903668954 13.4852772962699 10.904176463821788 0 0 0
416 1 20.25832228771654 14.896577045478502 12.193995852233812 0 0 0
1185 1 21.629000685080264 16.254332311879928 10.856643423715417 0 0 0
420 1 24.445444455064063 13.509125979022436 10.866802424167686 0 0 0
424 1 25.842448006430683 14.939812258069988 12.112582402509169 0 0 0
428 1 29.89915551368552 13.651903853209598 10.759671591012191 0 0 0
432 1 31.26336834920888 14.86688961890219 12.222522011421816 0 0 0
290 1 32.56061331254246 2.715722659608494 13.53455146133678 -1 0 0
295 1 4.103684698136578 1.2501397221560684 14.84824211117289 0 0 0
298 1 5.41556785797931 2.7088502538836665 13.508915236117419 0 0 0
1043 1 24.543110227386034 16.158728448598982 8.216102882921247 0 0 0
444 1 8.161631563630303 2.6872599143697284 16.173830609824734 0 0 0
303 1 9.46878749929482 1.2031172006112756 14.813673609154348 0 0 0
306 1 10.861013285929358 2.603537770219788 13.571375970833152 0 0 0
311 1 15.025982087713125 1.2281534586277036 14.97797109424774 0 0 0
314 1 16.233763201914424 2.6304907404231894 13.420424415014324 0 0 0
319 1 20.468087464244412 1.299583108474256 14.940813930328797 0 0 0
322 1 21.81362513671804 2.670178836500804 13.549377211409569 0 0 0
398 1 6.863495697427148 14.915570523930263 15.108447686464137 0 0 0
394 1 5.482270867538091 13.629494126877656 13.683237644124997 0 0 0
327 1 25.733098478534323 1.348760511416034 14.896060956731876 0 0 0
145 1 32.58934519041321 0.041232570419786896 5.3072152261916115 -1 0 0
330 1 27.127550239692052 2.787772223256881 13.632629833259143 0 0 0
335 1 31.333739310633295 1.3324262829370324 14.929337755290168 0 0 0
294 1 1.3108529976694612 4.126543159517047 14.895059412484056 0 0 0
339 1 2.5327772908425503 5.44390054686865 13.431862366767605 0 0 0
185 1 27.237658425618672 0.039993282692329046 5.4488627863407855 0 0 0
302 1 6.714719078270106 4.052397839004024 14.97222408062315 0 0 0
347 1 8.106539797546006 5.251087175028326 13.571193811300613 0 0 0
497 1 10.85306578230608 5.347099142986775 16.24713598720476 0 0 0
310 1 12.283945353756934 3.946669860193645 14.929948446420376 0 0 0
355 1 13.633195910298904 5.351759094788662 13.59556544643363 0 0 0
318 1 17.646722012665986 4.11831774977166 14.822199140282914 0 0 0
505 1 16.367513977217993 5.5308063630124 16.210157399557808 0 0 0
363 1 18.995819222694376 5.523216018598015 13.570766887884854 0 0 0
326 1 23.239265577899967 4.093938795220891 14.961005666375064 0 0 0
513 1 21.75087482187977 5.456082016204951 16.283635451802475 0 0 0
371 1 24.470953858957078 5.504747245199601 13.495498634311964 0 0 0
334 1 28.624360771769968 4.001688508000983 14.972210198300145 0 0 0
169 1 16.448424446056755 -0.023464494533264713 5.338108476241179 0 0 0
379 1 29.868985661322235 5.387846828388297 13.57482507084728 0 0 0
338 1 32.59273114528867 8.24444592277028 13.579144006547425 -1 0 0
342 1 1.3263369664443792 9.574268966803693 14.873211501993334 0 0 0
161 1 10.803653139121316 0.0972015457572013 5.42406820790187 0 0 0
343 1 3.906355025444336 6.793047940928055 14.840183891475082 0 0 0
346 1 5.367712889791506 8.15953056093468 13.609694163045102 0 0 0
350 1 6.73583126729911 9.439164400045339 14.959010982814602 0 0 0
351 1 9.543297054282796 6.674838040659391 14.931683558878897 0 0 0
354 1 10.743765568239144 8.127241243259157 13.584649409043536 0 0 0
358 1 12.121190193259583 9.550739896434475 14.911914308313026 0 0 0
500 1 13.604082846118656 8.198849831991803 16.229785195642283 0 0 0
359 1 14.918912685050234 6.750757886626246 14.971885310571233 0 0 0
362 1 16.225838791129583 8.165241087025127 13.716837140481184 0 0 0
366 1 17.624244474110228 9.577921270543893 15.061926505468252 0 0 0
367 1 20.358140507199487 6.803637863309226 14.973686261252011 0 0 0
370 1 21.63230685956503 8.084800538322032 13.658891990168934 0 0 0
374 1 23.072417650571737 9.440279456198086 14.905312530008889 0 0 0
375 1 25.869818506626867 6.752041697296692 14.946541668979728 0 0 0
378 1 27.220458922438862 8.000090636641048 13.47452751341699 0 0 0
382 1 28.496703047755485 9.390755752789406 14.927978325984892 0 0 0
383 1 31.332808097404833 6.722493872456723 14.917255287056904 0 0 0
1017 1 5.321012655974483 16.276528889130187 5.485271145201192 0 0 0
387 1 2.6733809826675277 10.966665414359761 13.524356815677665 0 0 0
391 1 4.128245431651066 12.240108029654056 14.874209381824334 0 0 0
537 1 5.477733177648381 10.966404466859968 16.247391788047274 0 0 0
395 1 8.097259077588133 10.940582766406028 13.687788790782898 0 0 0
399 1 9.579151932752705 12.260098253937306 14.861076332959444 0 0 0
403 1 13.486383435329284 10.811261118397729 13.48724275060388 0 0 0
407 1 14.905746938417053 12.099111075033106 14.91020379534058 0 0 0
415 1 20.45517620090418 12.144559744998945 14.971402764824559 0 0 0
411 1 19.038524550404887 10.814013163210683 13.61684746461066 0 0 0
423 1 25.947930504935833 12.086985883195856 14.928964200740726 0 0 0
419 1 24.5681530157557 10.78351964632746 13.591683025910966 0 0 0
431 1 31.04293889318854 12.205426097146706 14.851129947648706 0 0 0
427 1 29.778235349411094 10.863832074895623 13.496125684803944 0 0 0
390 1 1.2529386949118186 14.96187522567089 14.972799861086365 0 0 0
386 1 -0.0074654995283703705 13.448001255753505 13.726741650483024 0 0 0
899 1 24.351896096490666 16.20616871576499 2.676606070191966 0 0 0
43 1 29.94069903937623 0.11819388859366597 2.630943702986674 0 0 0
17 1 10.777118157627669 -0.004963091711147172 -0.016199264902063516 0 0 0
331 1 29.93165496903984 0.028356707465583497 13.552765351081868 0 0 0
19 1 13.539580818768947 0.009369455773139634 2.6454602259859556 0 0 0
436 1 2.6887053471743245 2.6118795888933355 16.23987545373512 0 0 0
905 1 27.199570808858482 16.249950437184363 0.028865952150766816 0 0 0
460 1 18.94698048838355 2.7261086048748306 16.240756939381814 0 0 0
124 1 18.953364827134454 13.657982777849186 -0.018513615391604787 0 0 0
481 1 0.05183312027774889 5.461850045610098 16.25635905327398 0 0 0
492 1 8.179408637934179 8.067933036340357 16.25415965055239 0 0 0
516 1 24.53537693875456 8.102608076122703 16.23477749289071 0 0 0
561 1 21.839007008140577 10.82556502701534 16.26302118551717 0 0 0
529 1 32.60062141011747 10.86720683867188 16.246400725164555 -1 0 0
548 1 13.609993879640204 13.471311856477213 16.251516446215497 0 0 0
564 1 24.423345246997144 13.585502221549923 16.280537648752247 0 0 0
41 1 27.18023737862581 0.016866621756292943 0.061930786422578876 0 0 0
100 1 2.823246162070201 13.582069376506798 0.0882774305140046 0 0 0
4 1 2.6194594442395367 2.689771318603287 -0.01584093775449702 0 0 0
44 1 29.930197283151998 2.7133972196031864 0.016374714689511904 0 0 0
92 1 30.000049042426678 8.076102658156286 0.0894135741283435 0 0 0
113 1 10.833550008076141 10.790983722473806 0.06913422882068687 0 0 0
129 1 21.641594141983855 10.753003834553535 0.006887019263722038 0 0 0
723 1 2.529829189698357 -0.023200683252596832 29.808280371558197 0 0 0
437 1 1.290074693343335 1.3262867841701862 17.638630578942582 0 0 0
442 1 5.53979631095459 2.627883998804623 19.049573424567424 0 0 0
445 1 6.831648459949822 1.2418959112104608 17.556939422793445 0 0 0
140 1 29.974479346058523 13.668184330790485 32.60010032071587 0 0 -1
450 1 10.90494702753446 2.574034707844641 18.90932781936056 0 0 0
451 1 13.61179256154383 -0.007910663989699172 18.934210670222857 0 0 0