LAMMPS data file via write_data, version 19 Nov 2024, timestep = 60000, units = metal

1728 atoms
1 atom types

-0.021085457632423754 32.601085457633005 xlo xhi
-0.021085457632423754 32.601085457633005 ylo yhi
-0.021085457632423754 32.601085457633005 zlo zhi

Atom Type Labels

1 Si

Masses

1 28.0855

Atoms # atomic

2 1 -0.017679131395487956 2.765010832873312 2.7374591457050967 0 0 0
5 1 1.3528905350766305 1.3394403513499828 1.4539825856064572 0 0 0
9 1 5.497472530023368 32.535209028135306 0.022045980358418562 0 -1 0
10 1 5.492718261856909 2.7601320096130086 2.625262623790401 0 0 0
11 1 8.142378542834361 0.006733611241246616 2.678205406347961 0 0 0
12 1 8.216334054077244 2.7169988555097406 0.027768703337745518 0 0 0
13 1 6.799565903716716 1.2613310553590364 1.3111705595291863 0 0 0
858 1 27.180598070283757 29.911723767434037 13.41697192799064 0 0 0
18 1 10.884641516465305 2.7908472138841955 2.686558732960097 0 0 0
21 1 12.207190445639188 1.5186707327479543 1.2314788188460322 0 0 0
26 1 16.351313738578455 2.6951668225173404 2.6257954381991544 0 0 0
29 1 17.616442023702795 1.313515021533787 1.2544575149337092 0 0 0
34 1 21.67453793421652 2.72664204431488 2.705422555467071 0 0 0
37 1 22.954890238098294 1.3765057714980768 1.3048575200143162 0 0 0
35 1 24.371320666050593 0.08419929969720646 2.7583973541345075 0 0 0
36 1 24.478246152246832 2.7838412717398695 0.1484457724658046 0 0 0
42 1 27.183516032562725 2.655805087538524 2.8064322760334317 0 0 0
45 1 28.531117060229608 1.4257198992652327 1.4284165824175308 0 0 0
43 1 29.83216217844996 -0.00039949986333002595 2.752084553382952 0 0 0
49 1 0.030530514198842187 5.416945723061431 0.05028460525543753 0 0 0
51 1 2.670628689742294 5.433260047774992 2.764232719162989 0 0 0
8 1 4.041006894076237 4.108883652685717 1.3926785892384952 0 0 0
57 1 5.372177778582042 5.4466760376640995 -0.01729641408609761 0 0 0
59 1 8.068443212655945 5.406637645515953 2.7856383917702234 0 0 0
16 1 9.462730844959374 4.111604202292541 1.4008801844043226 0 0 0
862 1 28.531234018397708 31.158693805063105 14.896739434555675 0 0 0
67 1 13.503366677971425 5.3721365674912 2.6587071840644936 0 0 0
24 1 14.96535078419916 4.141247802844223 1.2384117934968855 0 0 0
32 1 20.324819003291104 4.1134270563441495 1.1661270666075625 0 0 0
75 1 18.962525387521897 5.394162845437862 2.6163030469039446 0 0 0
850 1 21.59119588857372 29.765528603585445 13.476727454398063 0 0 0
40 1 25.88430801285806 4.0408158502212155 1.5095311516812464 0 0 0
83 1 24.43518772231605 5.341108769272345 2.7481690320367043 0 0 0
89 1 27.11057768829802 5.41631685738075 0.05395620418000043 0 0 0
48 1 31.291612836761367 4.012896934327016 1.4020922052974751 0 0 0
91 1 29.96156603214285 5.413729002285937 2.6313568085324137 0 0 0
50 1 0.04096782612995397 8.055823607038311 2.707459966567081 0 0 0
52 1 2.8450907364548708 8.229567733740371 -0.018888206404908618 0 0 0
53 1 1.4359606593052536 6.874289356313259 1.3173808482443914 0 0 0
58 1 5.466409869435779 8.099603569791691 2.6681709728010214 0 0 0
854 1 23.024949119204493 31.071868769361494 14.908966505768607 0 0 0
61 1 6.761298472080487 6.7658934595188285 1.3521625134418132 0 0 0
66 1 10.785196683965326 8.077509799293624 2.7887322374278254 0 0 0
603 1 18.96961464716984 32.51141868009916 13.687228921109725 0 -1 0
69 1 12.158660219545306 6.781600867360599 1.3752296123706795 0 0 0
74 1 16.151874080872794 8.204142545654516 2.636857524967248 0 0 0
77 1 17.635384522308534 6.9038608191856286 1.256933919009808 0 0 0
82 1 21.69660926272522 8.138192111204388 2.601701278915984 0 0 0
85 1 23.176433991295248 6.714332510105131 1.279411046055736 0 0 0
84 1 24.515393959188806 8.162909570876085 0.023628420683746678 0 0 0
90 1 27.120488339206428 8.022534633919777 2.7172513429629426 0 0 0
93 1 28.472887903199084 6.758088658108337 1.3555226502502078 0 0 0
842 1 16.248639852807674 29.96304318444107 13.677444822429955 0 0 0
99 1 2.67279763016944 10.810753579724835 2.6413576808625154 0 0 0
56 1 4.194674554526032 9.516733031247002 1.4167798670995526 0 0 0
846 1 17.66726711028115 31.19643448038084 15.070092718143894 0 0 0
107 1 8.060583192795098 10.862249119938454 2.607163547895159 0 0 0
64 1 9.446250979890372 9.506654398538307 1.3075644764086471 0 0 0
115 1 13.568621405679348 10.932752281709316 2.5922785796328816 0 0 0
72 1 14.817520046890824 9.521292888939358 1.2741419593304073 0 0 0
80 1 20.424159114902526 9.509067803240441 1.2329828059484675 0 0 0
123 1 18.98114795432321 10.827820793512732 2.544207908007412 0 0 0
838 1 12.197683429559984 31.262918849779304 15.083237950857624 0 0 0
88 1 25.810222171514077 9.514190740263265 1.3481332058189741 0 0 0
131 1 24.416103719772416 10.921169095908526 2.6931538887000457 0 0 0
96 1 31.169486228563322 9.526739743893009 1.42450648682682 0 0 0
139 1 29.834256942335838 10.814590014260538 2.874492860385131 0 0 0
101 1 1.1901627467172373 12.286204915971343 1.3997378527367605 0 0 0
106 1 5.413544471029977 13.645285239251269 2.6955542902395146 0 0 0
108 1 8.121628066727974 13.674867882543941 -0.0003953338983020459 0 0 0
109 1 6.741908689070517 12.3955788161615 1.3895683885747243 0 0 0
114 1 10.819834666785784 13.5954830057518 2.7693716221945177 0 0 0
117 1 12.23496010486386 12.306664762112783 1.3188327253278245 0 0 0
122 1 16.286159532884408 13.535102818215476 2.654608217347606 0 0 0
125 1 17.54874819740601 12.176480319017848 1.2974822499533958 0 0 0
124 1 19.004627862524465 13.538363190813806 0.0033025491694867485 0 0 0
130 1 21.779191012061133 13.626295056697927 2.7526367920240133 0 0 0
133 1 23.119056417666418 12.396960276035271 1.2664914089640766 0 0 0
834 1 10.868628267833897 29.85634398992303 13.747933521335527 0 0 0
138 1 27.206873523814213 13.439503573537035 2.7970454911913563 0 0 0
141 1 28.482416308235013 12.109389285927124 1.4009827045886014 0 0 0
98 1 32.445010371367815 13.63753857919118 2.8956732820218005 -1 0 0
144 1 31.16567414677517 14.88948845443037 1.3626789007373394 0 0 0
145 1 32.57233280788786 16.242195193094002 -0.010231642770447984 -1 0 0
147 1 2.556049060631272 16.25381387771362 2.651387942329572 0 0 0
149 1 1.2698973831711837 17.594067085380466 1.343817403408986 0 0 0
104 1 3.9430205907474334 14.928556934900282 1.2638917208733376 0 0 0
155 1 8.11152672370883 16.252518410652954 2.7034544586692997 0 0 0
157 1 6.795922524854996 17.645249406738674 1.3999048036158717 0 0 0
112 1 9.434771407257768 14.979715566473175 1.385838252308172 0 0 0
163 1 13.525777285315606 16.33923182666331 2.617250214986195 0 0 0
165 1 12.065429818148726 17.644896942146598 1.2274092839136572 0 0 0
120 1 15.082013011348854 14.980205976139251 1.3180986043003688 0 0 0
173 1 17.60884172771093 17.650518649300967 1.3946132685747226 0 0 0
128 1 20.395922389547188 14.927139417738129 1.3307470190363142 0 0 0
171 1 18.995969212924717 16.332152310807945 2.6875966956403476 0 0 0
177 1 21.75499602796168 16.329465085763793 0.08524198955636884 0 0 0
181 1 23.135594897124644 17.68744071665757 1.4602999717596419 0 0 0
136 1 25.968438109311716 14.885991640999713 1.4459839251643836 0 0 0
179 1 24.58357438186554 16.24222520367794 2.712437647674787 0 0 0
185 1 27.118835787033024 16.291213937194247 0.00828441337562615 0 0 0
189 1 28.56198385391435 17.533950047230856 1.3104313119935893 0 0 0
187 1 29.794439964436695 16.192819218906227 2.6969059710787175 0 0 0
148 1 2.68546900874572 18.94292270619999 0.03300132855134259 0 0 0
152 1 4.133251640544396 20.282759057578758 1.4197752204935126 0 0 0
154 1 5.415547931407497 18.86400919375165 2.829380305264108 0 0 0
156 1 8.141013453605433 19.081081422291476 0.023350408365035283 0 0 0
160 1 9.479175060706954 20.402995648342575 1.4183509396525067 0 0 0
162 1 10.832413241819884 19.03233116756074 2.711101536415087 0 0 0
164 1 13.573787467639775 18.96524817684179 -0.016382069280515513 0 0 0
168 1 14.940145917839107 20.42420878291405 1.3018525980112767 0 0 0
170 1 16.28309965008152 19.09712479015116 2.6946456526491502 0 0 0
172 1 18.96949955258243 19.065277608840717 0.02109768748089184 0 0 0
176 1 20.270691160479867 20.366419556737146 1.3863200396544262 0 0 0
178 1 21.77156784612669 19.07184989920297 2.720552575448967 0 0 0
180 1 24.41731031536012 19.070267742750424 0.12218545913143523 0 0 0
184 1 25.799503483996737 20.36605119557067 1.375186518379563 0 0 0
186 1 27.194813917508583 18.91880440373787 2.6430328260630507 0 0 0
146 1 32.457163073250996 18.934743570396666 2.7138868984526945 -1 0 0
192 1 31.083429135592873 20.26753043754595 1.396844543293788 0 0 0
195 1 2.6566474148607444 21.666140582187932 2.720256376820225 0 0 0
197 1 1.3113318464367625 23.07681102246687 1.3599399240975583 0 0 0
201 1 5.416280240856888 21.669558055217244 0.04535431034920947 0 0 0
203 1 8.185535851003396 21.782278528578836 2.754132396685454 0 0 0
205 1 6.811943415867098 23.1047079048407 1.3669854492586522 0 0 0
830 1 6.80610288315344 31.253378406651297 15.012241489158678 0 0 0
211 1 13.488952341454251 21.654295595288705 2.673474102674749 0 0 0
213 1 12.099555413896649 23.034089059368107 1.3310086139800785 0 0 0
221 1 17.61625655956706 23.193461345053777 1.336178088008006 0 0 0
219 1 18.856318650033185 21.752909954147427 2.702121485189771 0 0 0
229 1 23.041790517537706 23.043067804075424 1.3776778954311073 0 0 0
227 1 24.39608780419799 21.68408328056589 2.6381718949476474 0 0 0
826 1 5.322896785996445 30.047443235182207 13.665371056839708 0 0 0
237 1 28.603606046442717 23.047749960833336 1.3468124107018145 0 0 0
235 1 29.85046017372477 21.735548160248598 2.73871353285816 0 0 0
579 1 2.589722327924263 32.549370867360665 13.615900618382843 0 -1 0
200 1 4.070029344600751 25.756164154896958 1.3035950739671969 0 0 0
202 1 5.550272061267119 24.441238976784213 2.630852326286676 0 0 0
208 1 9.448753150665976 25.91388095101917 1.3043537373074432 0 0 0
210 1 10.776107528020955 24.505312444990572 2.715929321426475 0 0 0
212 1 13.473474260359936 24.46499477817889 0.009347930196212603 0 0 0
216 1 14.863344801258824 25.875062282684674 1.3558921424937795 0 0 0
218 1 16.16562738023105 24.50893724354501 2.7231729801347915 0 0 0
220 1 18.95890809390429 24.478949991222564 -0.00818853327846796 0 0 0
224 1 20.290344948276775 25.772593285049805 1.3769230835666397 0 0 0
226 1 21.63124655825216 24.501824296945365 2.70496846589957 0 0 0
818 1 0.018093617076971137 29.862681549738046 13.435814499396493 0 0 0
232 1 25.808303335180998 25.829029581209287 1.4169349978062753 0 0 0
234 1 27.264024496783097 24.438371571589773 2.71025093259448 0 0 0
194 1 0.042871172672541036 24.479093994634034 2.8471885525612946 0 0 0
822 1 1.2351286471331195 31.22169976676586 15.053041566092624 0 0 0
240 1 31.343320525897248 25.801092660378785 1.3268678909518323 0 0 0
243 1 2.8393563193600317 27.151945819281824 2.743284068916947 0 0 0
245 1 1.3543694388639762 28.50296436763661 1.4579775003470745 0 0 0
1105 1 0.09780577009845359 27.107443453419624 16.206874747187133 0 0 0
251 1 8.172278414937267 27.297132180815176 2.701614748333418 0 0 0
253 1 6.8268327883562705 28.67069524310693 1.219371955331199 0 0 0
259 1 13.546604450220421 27.15029113933123 2.782444865040162 0 0 0
261 1 12.176376770019539 28.397398454961763 1.317099294147262 0 0 0
859 1 29.84852874546114 27.06190597254169 13.564671042778832 0 0 0
269 1 17.584036621864094 28.562629781240318 1.3252214943863914 0 0 0
267 1 18.902810178123715 27.19298150477799 2.6657407726799556 0 0 0
277 1 23.09996018699431 28.57313559579856 1.4406751974855332 0 0 0
275 1 24.448988346362523 27.13761855790972 2.721346866772788 0 0 0
281 1 27.08133564840089 27.17727792962165 0.004226456539934833 0 0 0
285 1 28.51212696542968 28.59924664274336 1.2951575536779385 0 0 0
283 1 29.931899948871788 27.17990050628862 2.6695299934715275 0 0 0
3 1 2.6838941746236222 32.501155960941695 2.8007402016256804 0 -1 0
242 1 -0.003340255003892791 29.883846959738214 2.6938799739685475 0 0 0
248 1 4.046375173072876 31.21850899923803 1.4112203399481447 0 0 0
250 1 5.37983232806169 29.91178655510411 2.7324010760605155 0 0 0
863 1 31.32132535213486 28.454816261598207 14.854361161815948 0 0 0
256 1 9.44101685343381 31.2931626526438 1.2189473259427535 0 0 0
258 1 10.79730169264388 29.950360189124588 2.491944884466244 0 0 0
19 1 13.492666417359995 0.03846915853346644 2.559683210378729 0 0 0
264 1 14.929868678530905 31.213699804763614 1.2857514118523918 0 0 0
266 1 16.191944301351885 29.82429911686913 2.6760059836930163 0 0 0
27 1 18.819770301232165 32.560270893654945 2.708796938793099 0 -1 0
272 1 20.218003210751583 31.17847507023372 1.35795115771149 0 0 0
274 1 21.68895922020654 29.92259517360045 2.709621660954462 0 0 0
276 1 24.47414961753411 30.004614845075498 0.11541231330897331 0 0 0
280 1 25.88489726201992 31.359037588808764 1.388427767723238 0 0 0
282 1 27.22204353115932 29.961638844803527 2.67079765685184 0 0 0
284 1 29.899467674160466 29.892387440521688 -0.004552114816158345 0 0 0
288 1 31.17400552689393 31.281354108399032 1.4022228879420828 0 0 0
292 1 2.7289070809124136 2.685196283702417 5.3503873968963935 0 0 0
7 1 4.126558072239154 1.3409991555151537 3.979542068239063 0 0 0
297 1 5.467896730898947 0.009563160883631327 5.47497139730559 0 0 0
300 1 8.04910096924449 2.673542764495385 5.413199999466805 0 0 0
15 1 9.378103105597985 1.4349440786021586 3.9890678696559023 0 0 0
308 1 13.48255936842262 2.6644406632741764 5.355246074765975 0 0 0
23 1 14.860404235246293 1.3508250614860848 3.9397605544237093 0 0 0
31 1 20.312490163639996 1.3086005187516514 4.010777140920726 0 0 0
316 1 18.996756244407496 2.6693252394805764 5.4637115613862735 0 0 0
39 1 25.79518517724569 1.311324827213163 4.13376820952344 0 0 0
324 1 24.290207184935728 2.6883480474626804 5.479071619283563 0 0 0
329 1 27.141896060045408 0.029488693913964456 5.401948742187043 0 0 0
47 1 31.180223758389744 1.3382681803237 4.183844269460191 0 0 0
332 1 29.764148760696852 2.7365594872631487 5.499858068625579 0 0 0
6 1 1.3986596453628781 4.078014234864789 4.061184018929667 0 0 0
345 1 5.377355645268411 5.424243378859245 5.376192425957073 0 0 0
14 1 6.770823360138361 4.023615523684799 4.102857953303551 0 0 0
353 1 10.757000962385096 5.334617207408222 5.36561412308322 0 0 0
22 1 12.198807573776147 4.08984487637975 4.058310149911745 0 0 0
30 1 17.661127972983902 3.9621002156583978 4.052680988260169 0 0 0
361 1 16.33632642818515 5.353470259207542 5.3399340517595615 0 0 0
38 1 23.014097350120515 4.147731834832243 4.092277607510407 0 0 0
369 1 21.65702926592365 5.478504750296618 5.4369980783875675 0 0 0
46 1 28.534174209488413 4.092423864993144 4.063110770984528 0 0 0
377 1 27.142998803866533 5.355291616650896 5.511768992481796 0 0 0
337 1 32.5794805287666 5.4086504674163525 5.346803457185368 -1 0 0
340 1 2.6624621124448278 8.142885496020707 5.435238335586491 0 0 0
55 1 4.0523446857847825 6.805883913423926 4.018210882667221 0 0 0
348 1 8.020429279954444 8.20932961389794 5.391947423575281 0 0 0
63 1 9.398612375303347 6.7683555678267835 4.132066096487139 0 0 0
356 1 13.579463555642082 8.117557268844825 5.402391649820428 0 0 0
71 1 14.890614867114133 6.767420057316682 4.050324500114753 0 0 0
79 1 20.327411269503187 6.800650519916766 4.00299383305826 0 0 0
364 1 18.858406440338126 8.129580666271954 5.32759515709472 0 0 0
87 1 25.769896626565753 6.716364512327133 4.1478005908836 0 0 0
372 1 24.365765788872977 8.02391916519826 5.452475451202353 0 0 0
95 1 31.24067015608066 6.804786531065069 4.031032875307676 0 0 0
380 1 29.90560033645498 8.133379127713368 5.4390901202626285 0 0 0
54 1 1.3615217950577079 9.525618590790838 4.04938943805979 0 0 0
393 1 5.568243200923432 10.87566911878465 5.3600379002499805 0 0 0
62 1 6.747032536023341 9.53018404341865 4.037460111359673 0 0 0
401 1 10.945758231931915 10.862402484744914 5.378552316572851 0 0 0
70 1 12.275265917262146 9.515503172683378 4.051101881323833 0 0 0
78 1 17.557336084426975 9.52887947068903 3.9499736231078364 0 0 0
409 1 16.26214389145452 10.880617511465239 5.335233426685913 0 0 0
86 1 23.16434271240813 9.458131329711598 3.9575563497387267 0 0 0
417 1 21.702712146161026 10.659849443414005 5.340687707951444 0 0 0
94 1 28.451235935905434 9.453844865465191 4.161617439620958 0 0 0
425 1 27.108367308549894 10.748576957749473 5.568446700204674 0 0 0
385 1 0.09971942749838547 10.858325630358621 5.44948098684012 0 0 0
388 1 2.891067760045467 13.577722088696786 5.482582521978041 0 0 0
103 1 4.032625740608469 12.241311204074579 4.039679187049984 0 0 0
396 1 8.208219814960017 13.632940853621568 5.334811332833642 0 0 0
111 1 9.427719974727138 12.122259480192508 4.089109474649549 0 0 0
404 1 13.559774545169105 13.627510587887855 5.371828274851286 0 0 0
119 1 14.876631652721219 12.2207506627522 4.022988541025923 0 0 0
127 1 20.47171799929466 12.167969373513372 3.95411300824233 0 0 0
412 1 19.00698034354376 13.553591875464187 5.290618424255881 0 0 0
135 1 25.799016951559338 12.150616960941491 4.059353029043269 0 0 0
420 1 24.460328169774275 13.507408837943057 5.468231986690454 0 0 0
143 1 31.18261135601712 12.232197424413947 4.222504817896571 0 0 0
428 1 29.909993411445193 13.662509385318774 5.717203919821954 0 0 0
102 1 1.3892175421331396 14.889669788214672 4.13742764433147 0 0 0
151 1 3.879952085466254 17.563218907702975 3.9881058596074364 0 0 0
441 1 5.419758570369361 16.336669188089086 5.387210123115362 0 0 0
110 1 6.779646106630149 14.967064216815306 4.039393405973536 0 0 0
159 1 9.574502906043746 17.557327437953926 4.119570985377521 0 0 0
449 1 10.922395804949712 16.285559849985024 5.478252356890759 0 0 0
118 1 12.159725465440559 14.956263613301845 4.040976796848351 0 0 0
126 1 17.637973669351037 14.9746909120171 3.9933095222902772 0 0 0
167 1 14.913996764781757 17.714441806681137 3.9344903518749312 0 0 0
457 1 16.27295472141318 16.31071034208484 5.238727130064379 0 0 0
175 1 20.319775717592805 17.662965097107723 4.022740877881063 0 0 0
134 1 23.173580152655106 14.978956594310107 4.103382907827419 0 0 0
465 1 21.69049590332955 16.311900488698008 5.306942592632061 0 0 0
183 1 25.9738174390407 17.62626369022091 4.085886608750058 0 0 0
142 1 28.51964964398812 14.845814651859722 4.1156864487806235 0 0 0
473 1 27.315223079060885 16.295109051598605 5.457168955281258 0 0 0
433 1 0.018009627944124418 16.1908157981266 5.488252518889143 0 0 0
191 1 31.155599002019645 17.543464139167 4.133515148476134 0 0 0
150 1 1.2413735735497013 20.23622587756988 4.0351525661504555 0 0 0
436 1 2.5798650392919527 18.94818650620033 5.397990250194009 0 0 0
158 1 6.863164207811082 20.237719388621997 4.0857225123386565 0 0 0
444 1 8.212653865606606 18.95358471670555 5.48538553416749 0 0 0
166 1 12.197254358802551 20.323995955974205 4.141754917228747 0 0 0
452 1 13.614014377888552 19.02411727906811 5.4357036451847565 0 0 0
174 1 17.58680565709189 20.321499312943963 4.148680945300677 0 0 0
460 1 18.971828489834675 19.025441514726047 5.454411909622437 0 0 0
182 1 23.07799079094496 20.46365263188373 4.130928085654843 0 0 0
468 1 24.553780785545747 19.050720269935006 5.476391082975102 0 0 0
190 1 28.448990661573657 20.22517363836904 4.097454457554021 0 0 0
476 1 29.91949335496825 18.9897956844871 5.496233879475359 0 0 0
481 1 0.04340622018087552 21.792631540423905 5.3158805933227375 0 0 0
199 1 4.138703796434265 23.10691795472379 3.9083997490784226 0 0 0
489 1 5.397131394020835 21.67621429170909 5.368919339485675 0 0 0
207 1 9.579152416813129 23.141921747440197 4.1844220464601545 0 0 0
497 1 10.885783920376358 21.680855546141366 5.485838243328031 0 0 0
215 1 14.91890126816928 23.031610876108193 4.004858904251348 0 0 0
505 1 16.24424053338954 21.698075372642304 5.5050229047229715 0 0 0
223 1 20.281464714280723 23.04692155020668 4.023349206632629 0 0 0
513 1 21.676615233514305 21.762106112825656 5.528192826132732 0 0 0
231 1 25.788986328102467 23.009487034163588 3.997154441147584 0 0 0
521 1 27.150068339759034 21.59859204711814 5.394829387291006 0 0 0
239 1 31.26554120911913 23.203130463569867 4.120589970763856 0 0 0
198 1 1.436549037555303 25.811107356071965 4.105044341964282 0 0 0
484 1 2.8669519573107047 24.545663962144626 5.278267998275117 0 0 0
206 1 6.864589077677912 25.91910424389437 4.092575080824303 0 0 0
492 1 8.162448652793067 24.659652975119176 5.408843495709206 0 0 0
214 1 12.159997673484632 25.759927523986207 4.123415395157343 0 0 0
500 1 13.601620103758886 24.361416516385734 5.411405986749025 0 0 0
222 1 17.5820194420018 25.885855225323457 4.083667020769626 0 0 0
508 1 18.916550194634983 24.48873350565779 5.402042313859528 0 0 0
230 1 23.072903502141006 25.80900883367513 4.00131139835884 0 0 0
516 1 24.412926959841766 24.375176368973086 5.313379787436266 0 0 0
238 1 28.678088128589945 25.773536823839944 4.020473033979476 0 0 0
524 1 29.943888610147372 24.464607061948684 5.4728377918791065 0 0 0
529 1 0.04549088841975617 27.096156588212253 5.380997833876392 0 0 0
247 1 4.061263423511498 28.53916959575526 4.118954997624548 0 0 0
537 1 5.406032932302168 27.19807925389424 5.472968080874682 0 0 0
255 1 9.541626670696552 28.64727139878136 4.0999520849194955 0 0 0
545 1 10.91908486553011 27.24537806150413 5.4987480905609365 0 0 0
263 1 14.862551671426461 28.5006557516374 4.129240012729875 0 0 0
553 1 16.235745151929255 27.254266857760097 5.525658179538278 0 0 0
271 1 20.352925067249714 28.513977844580353 3.986248665065834 0 0 0
561 1 21.728948013762537 27.081741930097476 5.384954317310341 0 0 0
279 1 25.834333744365747 28.471863455121422 4.126370527385952 0 0 0
569 1 27.20729135241161 27.096317652076948 5.437949424129512 0 0 0
287 1 31.32590277444969 28.463779552765914 4.00647206258159 0 0 0
289 1 32.58311621658109 32.52508538669972 5.527874506732855 -1 -1 0
246 1 1.3090588329206454 31.21997305463269 4.169892453050008 0 0 0
532 1 2.607751462329028 29.878327785445588 5.384435922669777 0 0 0
254 1 6.801290634683169 31.267961765627746 4.024697657865845 0 0 0
540 1 8.189133902612427 29.998686665080566 5.391622471350089 0 0 0
305 1 10.779585075046942 0.11102534892772553 5.360779188107186 0 0 0
262 1 12.14040261430784 31.367664887747548 3.9843235541030086 0 0 0
548 1 13.418246169485833 29.848011083736925 5.330745909091036 0 0 0
313 1 16.265337858717412 0.008826769899577869 5.340832879737714 0 0 0
270 1 17.602700304806074 31.064227964640544 4.073445056462009 0 0 0
556 1 18.896478534123908 29.733521272605522 5.432533988904936 0 0 0
321 1 21.60633478985661 32.544668439745664 5.399268987059038 0 -1 0
278 1 23.0868322644331 31.223352362501004 4.099594194546139 0 0 0
564 1 24.44508957068033 29.860688992686303 5.455833524818333 0 0 0
286 1 28.568256362882458 31.27081058464229 4.1517452822490535 0 0 0
572 1 29.949859052727465 29.831943305086586 5.434050198912897 0 0 0
290 1 0.04178167221213597 2.576264070704482 8.122610725026734 0 0 0
293 1 1.4299520554395193 1.3052627616882562 6.790653057878291 0 0 0
295 1 4.04195843441814 1.2869775175637472 9.590035782921635 0 0 0
298 1 5.341068179312492 2.7434941671111317 8.137291787733103 0 0 0
301 1 6.754453312966692 1.3638818018473207 6.816812275563591 0 0 0
303 1 9.576497995533781 1.3731866102719048 9.520047958230936 0 0 0
306 1 10.796436578186045 2.6566573686161634 8.090233169546364 0 0 0
309 1 12.238161101044662 1.267326306353391 6.847654223526339 0 0 0
311 1 15.000733839886964 1.2553263773287568 9.490900804495066 0 0 0
314 1 16.344015596739535 2.5811086857337178 8.096838463359806 0 0 0
317 1 17.65482650531208 1.1522192259199588 6.7466162321774865 0 0 0
319 1 20.34750191494123 1.3645151997322176 9.554702001799132 0 0 0
322 1 21.683490038604273 2.6299259018220353 8.129982654888238 0 0 0
325 1 22.98841236208179 1.261382009307807 6.770462140691701 0 0 0
327 1 25.644977659956968 1.3325799254426656 9.399843537998375 0 0 0
330 1 27.053227896506538 2.6240257997417675 8.184802772512692 0 0 0
333 1 28.5033131164499 1.3577558436690276 6.7655058046563425 0 0 0
331 1 29.840508894238944 32.519288904833424 8.148078898293223 0 -1 0
335 1 31.223544499522262 1.212456135477367 9.465540604624456 0 0 0
294 1 1.2937139058853648 4.096157874330881 9.515560573580618 0 0 0
339 1 2.7018393926711464 5.447193746534182 8.18800116349421 0 0 0
296 1 4.055086410045004 4.069443121823722 6.739482338205141 0 0 0
302 1 6.640964506553413 4.187528400162589 9.417248042591373 0 0 0
347 1 8.051837587552738 5.482589576916426 8.000012291416553 0 0 0
304 1 9.437923965290976 4.086864621388163 6.713728238783265 0 0 0
310 1 12.24264447060491 3.9673250602445886 9.438020723267432 0 0 0
355 1 13.651410174794583 5.271085700562114 7.990774355112758 0 0 0
312 1 15.011534828682086 3.87119637113367 6.643485257238879 0 0 0
318 1 17.5764521364239 4.0028826060169855 9.393400036621939 0 0 0
320 1 20.34637304582225 4.077828314825966 6.823415738215582 0 0 0
363 1 18.85495306289907 5.49703357107047 8.097608003140522 0 0 0
326 1 23.064411349544706 4.095866163104644 9.57693906771352 0 0 0
328 1 25.680441941430495 4.0168954463990945 6.828877454898233 0 0 0
371 1 24.375059234461258 5.425876170645156 8.26728896096737 0 0 0
334 1 28.400494438189497 3.977303496257668 9.46664085122605 0 0 0
336 1 31.21655143805819 4.086806273250597 6.779006308390876 0 0 0
379 1 29.81958526991884 5.364002997960508 8.268770901972625 0 0 0
341 1 1.2411018310209423 6.756717956878973 6.825156337981623 0 0 0
343 1 4.098902353841503 6.751319172794726 9.623018881201789 0 0 0
346 1 5.4459994272392835 8.141733514556622 8.282178635298054 0 0 0
349 1 6.703367938552116 6.802345303235079 6.69652273398158 0 0 0
351 1 9.403234354277622 6.855356609567403 9.379639106664678 0 0 0
354 1 10.885607536312623 8.204982390729398 8.071318926295755 0 0 0
357 1 12.21739297437705 6.71449527749504 6.762165213022819 0 0 0
359 1 14.902789602710348 6.6968594477223276 9.348533692318844 0 0 0
362 1 16.343761976688896 8.094086496924392 8.007723857032891 0 0 0
365 1 17.624228160896557 6.8078835965490985 6.607069039460281 0 0 0
367 1 20.238700688996037 6.795610841507037 9.484199138158951 0 0 0
370 1 21.658557347969147 8.119517686676101 8.192144377795728 0 0 0
373 1 22.987398895763025 6.767126756942336 6.733047874941393 0 0 0
375 1 25.83407498456703 6.777815047221735 9.517859540611857 0 0 0
378 1 27.142728514424306 8.117470993402467 8.17726030751992 0 0 0
381 1 28.527802545691078 6.753481016658098 6.862725805571351 0 0 0
338 1 32.54398037818626 8.10578432258911 8.186586460593908 -1 0 0
383 1 31.297075392079613 6.690593312072181 9.562232565411586 0 0 0
342 1 1.3011052310551705 9.45844653106579 9.433269500576825 0 0 0
387 1 2.8376307935804315 10.75202857073683 8.07482583444596 0 0 0
344 1 4.18631983023433 9.43916422881926 6.750806392655307 0 0 0
350 1 6.876323785184976 9.583060235669036 9.537924481928364 0 0 0
395 1 8.21125172438415 10.925603788278048 8.120082595996173 0 0 0
352 1 9.51873653042467 9.561506989023025 6.760003097896368 0 0 0
358 1 12.335179284836004 9.475391104680781 9.47131424681012 0 0 0
403 1 13.551370599012847 10.903937434098328 8.037568706389328 0 0 0
360 1 14.93937263203832 9.512734820319787 6.6995118019918305 0 0 0
366 1 17.607523112405115 9.532733102142736 9.432369774109729 0 0 0
368 1 20.34646804632828 9.339445893098107 6.748870739516043 0 0 0
411 1 18.940431424627047 10.809633765374429 7.953815949036146 0 0 0
374 1 23.150698899666207 9.493322078097547 9.40395698308034 0 0 0
376 1 25.775266313280053 9.304335106309338 6.829125393810469 0 0 0
419 1 24.51632149767594 10.753523834231807 8.062685946853415 0 0 0
382 1 28.568888402904193 9.39282077049863 9.475720109851265 0 0 0
384 1 31.189131251145437 9.565419043204141 6.822801116755342 0 0 0
427 1 29.883029093044456 10.770273973582587 8.226567170542411 0 0 0
386 1 0.09683911120119325 13.516901384460606 8.199999726058776 0 0 0
389 1 1.4493533704434731 12.179904166667031 6.785415923037777 0 0 0
391 1 4.179211067113511 12.139256818361194 9.445335668302812 0 0 0
394 1 5.603495299307217 13.499065503466817 8.228449786676983 0 0 0
397 1 6.887072900160715 12.236286216921561 6.7278922199416735 0 0 0
399 1 9.52438683963267 12.259486103526106 9.486705584078345 0 0 0
402 1 10.92583710348175 13.592453737263083 8.172778605057108 0 0 0
405 1 12.228540637788981 12.33876405953415 6.756448506701518 0 0 0
407 1 14.96577000561929 12.237064295547412 9.411005782673922 0 0 0
410 1 16.313835317202525 13.643884194092374 8.108382141453763 0 0 0
413 1 17.640350919914216 12.195747273175789 6.696320988128218 0 0 0
415 1 20.393139646137367 12.128503773249363 9.375585412648388 0 0 0
418 1 21.70771883994653 13.360189628854652 7.974555506522669 0 0 0
421 1 23.140782559699037 12.005354110452371 6.696023294058955 0 0 0
423 1 25.828299990540433 12.179541363703503 9.484422877479306 0 0 0
426 1 27.195377438422057 13.58917718784025 8.176545416280273 0 0 0
429 1 28.533498007050504 12.171568281512496 6.942905183175261 0 0 0
431 1 31.29041957454544 12.075518454013839 9.456564436162562 0 0 0
390 1 1.3817158221987837 14.982876047251175 9.444725361779316 0 0 0
435 1 2.807090424965386 16.40400979564193 8.19066248423202 0 0 0
437 1 1.2791482992454686 17.622596214467805 6.829341060968999 0 0 0
392 1 4.180094724241085 14.99381394870058 6.910145327184724 0 0 0
439 1 4.176502196210514 17.749623312989932 9.640126100072218 0 0 0
398 1 6.897504668748331 15.003139974360305 9.498115043594256 0 0 0
443 1 8.207619830202857 16.35571011361853 8.11863805154826 0 0 0
445 1 6.722377879201574 17.66385380464596 6.821445703989496 0 0 0
400 1 9.707935428007202 14.91363059617702 6.811777173112924 0 0 0
447 1 9.439963026020337 17.655111680669336 9.585849586260998 0 0 0
406 1 12.28613852949112 14.979290550379488 9.43023099009184 0 0 0
451 1 13.731677196671825 16.345237862988157 8.081793610048942 0 0 0
453 1 12.27891139499175 17.63803846590251 6.762080328944318 0 0 0
408 1 15.01564564649203 15.021460358884763 6.6576047453852025 0 0 0
414 1 17.700920281116385 14.979755551589006 9.405568966871401 0 0 0
455 1 15.052702014360062 17.68375864533907 9.41329448689295 0 0 0
461 1 17.635617692051014 17.717559704080006 6.696118519780144 0 0 0
416 1 20.306165450533914 14.882395996124355 6.647073329993356 0 0 0
459 1 18.994664665978725 16.332751969885805 7.972836313004874 0 0 0
463 1 20.36811387515694 17.617302980699854 9.333473852888707 0 0 0