LAMMPS data file via write_data, version 19 Nov 2024, timestep = 60100, units = metal

1728 atoms
1 atom types

-0.02369895950978318 32.603698959509885 xlo xhi
-0.02369895950978318 32.603698959509885 ylo yhi
-0.02369895950978318 32.603698959509885 zlo zhi

Atom Type Labels

1 Si

Masses

1 28.0855

Atoms # atomic

572 1 29.865406479742585 13.497892394662097 16.25967298812283 0 0 0
4 1 2.7289395339806637 2.610528870948927 0.030045788367908482 0 0 0
5 1 1.3499545125006578 1.257365355576794 1.3447887640168543 0 0 0
10 1 5.377622760081901 2.7271863752778986 2.723862341019873 0 0 0
11 1 8.232464181577612 0.08582400301561102 2.790982806922271 0 0 0
12 1 8.143785879907135 2.7837910959841086 0.07683453793264294 0 0 0
13 1 6.798678600331833 1.3831986380157204 1.4955088775584484 0 0 0
18 1 10.736876905562632 2.6924839303082693 2.579399508993431 0 0 0
21 1 12.261940369470066 1.3616661244749073 1.3488770173361877 0 0 0
26 1 16.293520456157616 2.670919213822093 2.5856946819545183 0 0 0
29 1 17.65028058998583 1.2256073014165165 1.3464621710384146 0 0 0
1195 1 29.89638963755348 16.152573708690355 13.646752159546908 0 0 0
34 1 21.690633769074278 2.70201870248344 2.6456528946201527 0 0 0
37 1 23.127009017270687 1.2924448899875634 1.363521113521774 0 0 0
426 1 27.1056865925865 13.599168258502491 13.640222478622679 0 0 0
1171 1 13.54726204551312 16.255826488330342 13.539992128188219 0 0 0
42 1 27.170183936585442 2.7431138203896235 2.784023673072117 0 0 0
45 1 28.515833007766854 1.4235046161461904 1.346374395483325 0 0 0
2 1 0.04661888207324694 2.674042146177639 2.693299935605738 0 0 0
43 1 29.811885219276537 -0.016656434052102057 2.7271476947741284 0 0 0
49 1 -0.019757324646925756 5.3861127122411645 -0.0021408000907116474 0 0 0
51 1 2.665143181509694 5.522188920148691 2.664183901289583 0 0 0
8 1 4.101099351272532 4.140962071771537 1.324022546413368 0 0 0
1297 1 32.525733417808645 16.198093740154587 16.248941172808763 -1 0 0
59 1 8.106170584280395 5.543914256329718 2.7328485650489385 0 0 0
16 1 9.438772468224316 4.22461273894019 1.3650846522455469 0 0 0
67 1 13.470204545695124 5.44939701356806 2.6892753543198915 0 0 0
24 1 14.879473827592905 4.123411870588884 1.3539627378266517 0 0 0
73 1 16.304972158817968 5.43160566547661 0.005890538680114975 0 0 0
32 1 20.345835427706987 4.049907650547499 1.2391258090977892 0 0 0
75 1 19.084579755788305 5.434191057289121 2.704403790199504 0 0 0
40 1 25.787965379068474 3.9495681971270105 1.305311156617245 0 0 0
83 1 24.487796191130958 5.388749876483396 2.6520184246912697 0 0 0
48 1 31.24563404301097 3.984613477630706 1.32961231116371 0 0 0
91 1 29.849278895190757 5.346557462441115 2.579936112774335 0 0 0
50 1 32.42894900815376 8.309805152708057 2.721357330137853 -1 0 0
441 1 5.402392724571314 0.12058514191812009 16.283497447535268 0 0 0
53 1 1.3177063058696203 6.883985815378345 1.3448123271715005 0 0 0
56 1 4.093439618293573 9.465301652161015 1.3495916972358153 0 0 0
58 1 5.352242867128167 8.046625011664515 2.6346349895849817 0 0 0
299 1 8.170642388033583 -0.010976631905940337 13.512249775268865 0 0 0
61 1 6.8532357973334666 6.781387402499024 1.2385143276589168 0 0 0
64 1 9.459731774047368 9.474563776967694 1.3914113253990001 0 0 0
66 1 10.878600882905268 8.170318819682736 2.7011803299262005 0 0 0
69 1 12.201870862521499 6.798522833193902 1.3485942765898558 0 0 0
72 1 14.998773403528908 9.540760213880784 1.3300729996190783 0 0 0
74 1 16.345034893782454 8.155299801078117 2.666315218882597 0 0 0
77 1 17.78227907133113 6.768614775568748 1.3467340820664608 0 0 0
76 1 19.1643115821312 8.16573396523185 -0.008107361803168787 0 0 0
80 1 20.421610061084237 9.5280415707806 1.36648357609271 0 0 0
82 1 21.774819975291738 8.15976293492531 2.752952422168382 0 0 0
85 1 22.980338630704605 6.79361188248175 1.3719147838525714 0 0 0
84 1 24.533189728322007 8.243164055826046 0.07025289207636061 0 0 0
88 1 25.89414026813314 9.537166118105342 1.3783056868331407 0 0 0
90 1 27.106159640170986 8.126756435411743 2.710244483912872 0 0 0
93 1 28.51952086492957 6.723686641533017 1.3833191168802434 0 0 0
96 1 31.179473156087056 9.486116067595617 1.2807675235479252 0 0 0
99 1 2.702515345487309 10.855335450151886 2.830813890895603 0 0 0
101 1 1.3529234183676828 12.195505580375112 1.386484243771942 0 0 0
1155 1 2.597760254955993 16.26449633750993 13.571436937150125 0 0 0
107 1 8.137644315995848 10.862488214496413 2.660278212977596 0 0 0
109 1 6.845439954885641 12.212389370305093 1.3486308521602683 0 0 0
113 1 10.920530160551152 10.729674591066363 0.048122732075005184 0 0 0
115 1 13.611114207830347 10.899256338573018 2.767687976634518 0 0 0
117 1 12.247374432371545 12.215100263619595 1.3634934665322018 0 0 0
187 1 29.830730291588072 -0.0015406372038739846 8.16204729089232 0 0 0
125 1 17.65679644795665 12.255106147259113 1.285826962703964 0 0 0
123 1 19.012865051043967 10.921636854191913 2.7678362675447254 0 0 0
133 1 23.16583555844021 12.170579146676626 1.3884455502332884 0 0 0
131 1 24.426412643759654 10.697946616099664 2.7194011704726675 0 0 0
449 1 10.939450726971838 0.07590600419772642 16.17792434680053 0 0 0
141 1 28.587214914703008 12.271428668034746 1.3434930679824217 0 0 0
139 1 29.926169617878426 10.788028125097036 2.705226319409047 0 0 0
867 1 2.551856450807344 16.21008851865312 2.6390766083632577 0 0 0
104 1 4.044336847086524 14.814339003954679 1.3611165828981588 0 0 0
106 1 5.4540939855564545 13.514428578947712 2.7844152625024257 0 0 0
430 1 28.52205967669924 14.906744973145111 15.065911147077026 0 0 0
112 1 9.564312584927707 14.874901777586562 1.2967603355414692 0 0 0
114 1 10.876051691981198 13.54139444823215 2.710462135513106 0 0 0
179 1 24.317464772988288 0.045875789716063764 8.145193581650858 0 0 0
120 1 14.907516106038008 14.881864312198699 1.354786376546203 0 0 0
122 1 16.34193769467835 13.618130735768219 2.6719226877803455 0 0 0
128 1 20.409009696697076 14.888207455219847 1.3890881580379215 0 0 0
130 1 21.74229543304749 13.552246307447003 2.720692573057643 0 0 0
163 1 13.56799119326479 0.07847873289581031 8.147630121308891 0 0 0
136 1 25.782654065330114 14.976335125802315 1.3700325359148664 0 0 0
418 1 21.651901750150618 13.621434305645172 13.58062297794066 0 0 0
138 1 27.227398413251187 13.579996944093061 2.7983941538455457 0 0 0
98 1 32.600287891102916 13.511848684875309 2.7439188889687953 -1 0 0
144 1 31.221259109716403 14.923741647860021 1.388547886497234 0 0 0
907 1 29.872333596751638 16.20014584914534 2.8141345352530784 0 0 0
422 1 23.046445564947177 14.932565942477465 14.939055899857962 0 0 0
148 1 2.7128797516684 2.7021239503645575 5.399541196163341 0 0 0
7 1 4.040617024833568 1.314501265545739 4.074986619662772 0 0 0
153 1 5.404643512782525 -0.0013839883401643859 5.368048008963441 0 0 0
156 1 8.102481991181984 2.8026918081795564 5.398813986619298 0 0 0
15 1 9.509751013106824 1.4179629038041404 4.015184045997895 0 0 0
164 1 13.565120434177217 2.779213353065641 5.419634227889391 0 0 0
23 1 15.039681984377276 1.3867733985576198 4.1245722813253085 0 0 0
31 1 20.319913917566726 1.43306829532101 4.0366966112602904 0 0 0
172 1 18.999983941253696 2.6835255311990376 5.452332919296903 0 0 0
39 1 25.78208304614909 1.3196157795246095 3.999996957961999 0 0 0
180 1 24.345404417716765 2.656198190085602 5.446457160395414 0 0 0
47 1 31.14541893313286 1.4050948008638542 4.106159005549529 0 0 0
188 1 29.78752155498628 2.617291340031032 5.424694522564099 0 0 0
6 1 1.3099976936995352 4.117119092188744 4.094352296545352 0 0 0
201 1 5.3558684370509315 5.445546299680361 5.450456156124832 0 0 0
14 1 6.671215502569114 4.157287569172335 4.12773262376222 0 0 0
209 1 10.812309556238166 5.38967334424802 5.305571337080722 0 0 0
22 1 12.13495349909832 3.9799727198217476 3.9843868429502103 0 0 0
30 1 17.65254867178837 4.028505997164749 4.0304823772061 0 0 0
217 1 16.275702614225857 5.42957515345108 5.326071474208077 0 0 0
38 1 23.032269056264088 4.049539422970787 4.015039031186621 0 0 0
225 1 21.728925681102968 5.3099385558810575 5.527579465845691 0 0 0
46 1 28.600308857188498 4.093325616613479 4.074116710464083 0 0 0
233 1 27.153728004029333 5.339485364563998 5.324294420861962 0 0 0
193 1 32.581776683042285 5.448786841547125 5.45137814792957 -1 0 0
54 1 1.2405395288594963 9.556358584268956 4.131726579389998 0 0 0
196 1 2.640336482199318 8.198724902304814 5.472750972270142 0 0 0
55 1 4.051240002673414 6.80481971830006 4.140178925983798 0 0 0
62 1 6.821585744944785 9.439573450426229 4.070334149478361 0 0 0
204 1 8.18298077252131 8.031486557688709 5.454162812824561 0 0 0
63 1 9.49530618017811 6.827143778389533 4.025090975951198 0 0 0
70 1 12.156556326020832 9.465023131698112 4.152907190160282 0 0 0
212 1 13.439312569335566 8.099198863625077 5.498247911180971 0 0 0
71 1 14.888223305656533 6.7611687671431415 4.066059772394976 0 0 0
78 1 17.687883516620126 9.40228528619377 4.084167079516334 0 0 0
79 1 20.496873798361843 6.7590244106910085 4.024616715469061 0 0 0
220 1 19.116766708333525 8.04779615989445 5.463874462735099 0 0 0
86 1 23.099971105284443 9.46889763732857 4.054127674455363 0 0 0
87 1 25.756589862961135 6.752547779645974 4.100699426819114 0 0 0
228 1 24.307305055039002 8.102785812283017 5.433828238252144 0 0 0
94 1 28.506901518501813 9.382483242164776 4.046592250320878 0 0 0
95 1 31.244388103938 6.754667725084207 4.039087647139648 0 0 0
236 1 29.832662915205407 8.068270178091723 5.474760356871715 0 0 0
103 1 4.041230843684044 12.247998583977134 4.184753494823293 0 0 0
249 1 5.465526739032631 10.86530661207485 5.455946514070617 0 0 0
111 1 9.40274916121239 12.130511203993091 4.005614971320497 0 0 0
257 1 10.763168816637736 10.905902169650318 5.427255074938649 0 0 0
119 1 15.025694350792083 12.22565570792302 4.091876593168718 0 0 0
265 1 16.356850226005804 10.866141119663988 5.5318106088362935 0 0 0
127 1 20.462267518745758 12.189228165738658 4.086937064982442 0 0 0
273 1 21.823266572643494 10.837759539065557 5.401263458194694 0 0 0
135 1 25.768503266462016 12.165502556697565 4.073570715910268 0 0 0
281 1 27.134124599283645 10.819635675573775 5.4285558393086095 0 0 0
241 1 32.53442224511429 10.940606189598562 5.494661392961828 -1 0 0
143 1 31.269170576369163 12.15842847368397 4.041178867450527 0 0 0
102 1 1.285778752112593 14.86848079904699 4.137338212579808 0 0 0
244 1 2.7888359866763643 13.66958840479189 5.519144565757307 0 0 0
1009 1 0.11082548638663667 16.26830012654321 5.581020853650685 0 0 0
1017 1 5.475178107663865 16.28079568310597 5.293366096748539 0 0 0
110 1 6.8504626822994155 14.953284896159104 4.04092825643518 0 0 0
252 1 8.136658312072093 13.490330413679153 5.352385215180892 0 0 0
1025 1 10.756154864598512 16.24018091983023 5.322337807863718 0 0 0
118 1 12.257771620075294 14.82309366812723 4.043890939377707 0 0 0
260 1 13.706229758320426 13.497696760013183 5.443100813887548 0 0 0
126 1 17.65470536425898 14.933775619814798 4.062316283460025 0 0 0
1179 1 19.02347620879684 16.28663854483221 13.604345887242358 0 0 0
268 1 19.029971307364125 13.574598870962753 5.3743983111296 0 0 0
410 1 16.46308795935416 13.582248135112561 13.604845006012944 0 0 0
134 1 23.140244500727835 14.993400857066346 4.062050181072143 0 0 0
276 1 24.44205077610654 13.594870780642546 5.482989845875005 0 0 0
414 1 17.690338167075208 14.97015667627729 14.973187937618077 0 0 0
142 1 28.506790113661065 14.873636855370917 4.207301661646464 0 0 0
284 1 29.912320911664796 13.504806604014904 5.472350746340927 0 0 0
149 1 1.366318967760073 1.2796267151669214 6.7612666246734365 0 0 0
151 1 4.11898831114139 1.3479162883434745 9.541191333641327 0 0 0
154 1 5.358526572515148 2.7430317388111254 8.18180396212197 0 0 0
155 1 8.176960817330603 -0.0023480498809626818 8.135443835879206 0 0 0
157 1 6.75352626692581 1.3779992169181983 6.824956745646954 0 0 0
159 1 9.540437521328307 1.3189599832564205 9.467089502764193 0 0 0
162 1 10.86067958504136 2.6593212491234226 8.082411800333428 0 0 0
165 1 12.193199040199634 1.3812488332930328 6.703959827011322 0 0 0
167 1 14.982418524986759 1.362562923427069 9.583259311805397 0 0 0
170 1 16.286948178079886 2.675069530857468 8.097840041076585 0 0 0
173 1 17.743496918726038 1.1966055571960055 6.829243564492224 0 0 0
175 1 20.387697976217684 1.238893319140484 9.507072089916658 0 0 0
178 1 21.638083274896395 2.684369376910237 8.242351374724786 0 0 0
181 1 23.057041382438545 1.3407021246633428 6.846518919404456 0 0 0
183 1 25.704598559856763 1.2305873779758154 9.533939329562621 0 0 0
186 1 27.158209620223865 2.488353683208506 8.123708912130402 0 0 0
189 1 28.488532391284778 1.2494967349628963 6.682030803801128 0 0 0
146 1 0.03000536598877801 2.57144156736866 8.106688054695526 0 0 0
191 1 31.276910522356005 1.2880209907466669 9.490030641169172 0 0 0
150 1 1.2898357434830263 4.039268719722685 9.519839414526306 0 0 0
195 1 2.7341118938259372 5.434362939145591 8.247431276160219 0 0 0
152 1 4.021185743556317 4.108909275416867 6.803383130305562 0 0 0
158 1 6.687004007744516 4.101675529828061 9.514842556772216 0 0 0
203 1 8.17678091986013 5.405383521347295 8.191761147428434 0 0 0
160 1 9.476721220439638 4.152369545528449 6.7355289092502 0 0 0
166 1 12.200065652069885 4.053111118821794 9.492181461791695 0 0 0
211 1 13.51873929815665 5.320889554709604 8.05943705783393 0 0 0
168 1 14.93292729216302 4.0250883117722855 6.771758388228425 0 0 0
174 1 17.617481757118156 4.0125461956585475 9.512121106420329 0 0 0
176 1 20.31245761108622 4.009190080167926 6.908632001450116 0 0 0
219 1 18.979062210853986 5.324171059110735 8.185899824430868 0 0 0
182 1 23.011760318804107 4.134863605249716 9.511348643919087 0 0 0
184 1 25.830477647533957 3.979238038037512 6.766116060662083 0 0 0
227 1 24.501301004487047 5.3286860922275405 8.13652797081382 0 0 0
190 1 28.476102989715983 3.890267315574865 9.468184071757447 0 0 0
192 1 31.240284637264367 3.931612136536744 6.780485513994187 0 0 0
235 1 29.827120341589104 5.263344152002503 8.10929180155232 0 0 0
197 1 1.3500911213266302 6.790522100841741 6.795006092289023 0 0 0
198 1 1.3302408833660704 9.37962847654811 9.43835328121663 0 0 0
199 1 4.1842213671042305 6.737319035395066 9.502953950731182 0 0 0
200 1 4.082199208082153 9.422523320714435 6.779410076748167 0 0 0
202 1 5.435860899963069 8.109966953160145 8.05232261177693 0 0 0
205 1 6.7928007344083845 6.739262097714695 6.794251831051912 0 0 0
206 1 6.799155124994746 9.492663704506189 9.356451105485563 0 0 0
207 1 9.486183262737887 6.731615418594405 9.460407327309413 0 0 0
208 1 9.478167157839984 9.521398731473173 6.765351124019614 0 0 0
210 1 10.784380135155075 8.072191252779177 8.116543453358412 0 0 0
213 1 12.18167852587347 6.686804961342093 6.733932686341614 0 0 0
214 1 12.20241600481183 9.444068714014733 9.495141248921268 0 0 0
215 1 14.910320520836487 6.684492043741551 9.399062244770716 0 0 0
216 1 14.858770267062754 9.487287007565435 6.765949594041317 0 0 0
218 1 16.22271946127307 8.152040584953046 8.083570616864474 0 0 0
221 1 17.642768701588924 6.65972386833732 6.739972882585206 0 0 0
222 1 17.589252327821146 9.50558761398176 9.442718108000829 0 0 0
223 1 20.282100082444344 6.801619728325034 9.4135075185244 0 0 0
224 1 20.45250815161222 9.481879473035253 6.757830895055467 0 0 0
226 1 21.80190283494731 8.174441428399449 8.235583015848626 0 0 0
229 1 23.05948707070295 6.736030173028052 6.851467005978059 0 0 0
230 1 23.176934527645127 9.57973407831551 9.568376154502776 0 0 0
231 1 25.716035772150104 6.7877593050119245 9.445943331919366 0 0 0
232 1 25.818489358721276 9.424855191716762 6.733430915948399 0 0 0
234 1 27.187675034262 8.104050299781804 8.068489450292432 0 0 0
237 1 28.532358755285895 6.63100797365199 6.683592216990331 0 0 0
238 1 28.494398638623977 9.500024271836898 9.442247195034678 0 0 0
194 1 32.58360287806653 8.131227566163945 8.092352840594634 -1 0 0
239 1 31.158100395304658 6.796990648439368 9.451570695399989 0 0 0
240 1 31.171866569924063 9.547967862975863 6.7960820136010955 0 0 0
243 1 2.5737607741297834 10.778743498735412 8.033051056307613 0 0 0
245 1 1.3844114843440192 12.336906823136648 6.729301730445831 0 0 0
247 1 3.995866293716861 12.123976050504771 9.425127809616793 0 0 0
251 1 8.278370165515202 10.902675126183402 8.087089839714489 0 0 0
253 1 6.745698905580551 12.265421617249592 6.785515349527608 0 0 0
255 1 9.593734870542917 12.230829643856604 9.545987886604317 0 0 0
259 1 13.561877368471059 10.852372167812911 8.11117359185347 0 0 0
261 1 12.160342376045655 12.246352597286716 6.7906179638651425 0 0 0
263 1 14.97281306496781 12.213341538362712 9.39934552400068 0 0 0
269 1 17.70458725356808 12.27428552275339 6.782395224371074 0 0 0
267 1 19.048530909898297 10.836879916280566 8.10325133059899 0 0 0
271 1 20.47224367175965 12.216099490398054 9.578786440431998 0 0 0
277 1 23.137472066390277 12.265616479402201 6.796881916286787 0 0 0
275 1 24.48004135892604 10.828879924134146 8.129303864567909 0 0 0
279 1 25.763572262914142 12.287735860381407 9.46604959138675 0 0 0
285 1 28.45549452420374 12.23731677540276 6.765479765581705 0 0 0
283 1 29.83725051713567 10.89111693395622 8.150957815136639 0 0 0
287 1 31.294911986351202 12.147309243768586 9.483872579390436 0 0 0
147 1 2.747302333123285 -0.015402066160703498 8.133421446893792 0 0 0
246 1 1.3406887151182996 14.905935727602197 9.591972256647962 0 0 0
248 1 4.118077259819532 14.97676047415873 6.887046862577481 0 0 0
250 1 5.496026729457864 13.597046530632149 8.174460933492629 0 0 0
406 1 12.253870531813911 14.89957254316052 14.969928626129477 0 0 0
254 1 6.848176152702526 14.991242560542524 9.532683768969116 0 0 0
256 1 9.383166450319642 14.833495962653476 6.696958741928684 0 0 0
258 1 10.87338832978209 13.645828630252172 8.134740973020111 0 0 0
177 1 21.76197332776714 0.03203659794507274 5.409267951385946 0 0 0
262 1 12.282316495891202 14.920329831847576 9.489342648385069 0 0 0
264 1 14.894001427793562 15.091362486291823 6.838043888906596 0 0 0
266 1 16.345135998426322 13.681868021047453 8.118234329113353 0 0 0
270 1 17.757172378195953 14.885236134641568 9.42999488920174 0 0 0
402 1 10.934273769681408 13.575143058375705 13.543864802534397 0 0 0
272 1 20.428447082379982 14.957263730760795 6.721179916440566 0 0 0
274 1 21.676999601001995 13.554220735897069 8.174302791512263 0 0 0
278 1 23.018046557347898 14.967697918768609 9.47956924225779 0 0 0
1043 1 24.37106527547042 16.2832630362126 8.190456926475628 0 0 0
280 1 25.822450658355415 15.026113568743906 6.768256114786259 0 0 0
282 1 27.125505035541433 13.60601351222615 8.097609809064657 0 0 0
286 1 28.57448607849562 14.98211021967607 9.524645557133269 0 0 0
1051 1 29.851013463460244 16.263009142182888 8.07075509188053 0 0 0
242 1 -0.0027233633916452504 13.517698463978611 8.151377059773205 0 0 0
288 1 31.29159954530781 14.845606758283695 6.852877986590268 0 0 0
398 1 6.819988643349021 15.003331858384973 14.999750539807188 0 0 0
292 1 2.6513340967355328 2.6632476495117405 10.832312901846672 0 0 0
293 1 1.2994043334147762 1.242899432189139 12.254577881706044 0 0 0
297 1 5.574521803516238 0.011834330713870167 10.8684014871033 0 0 0
300 1 8.198503993286106 2.69548858315107 10.869661438167938 0 0 0
301 1 6.765722826763698 1.3011601442277747 12.22159449798284 0 0 0
308 1 13.586460531521515 2.7372529851242486 10.877976681090583 0 0 0
309 1 12.17872413917207 1.3832014153077785 12.22910401572734 0 0 0
161 1 10.799222017343942 0.011216116729286796 5.342399791661052 0 0 0
317 1 17.60516185493751 1.3289486846666532 12.1838759913238 0 0 0
316 1 18.97860443792829 2.7179707203558916 10.855683444441262 0 0 0
394 1 5.513862713188441 13.655825524015926 13.570117094894638 0 0 0
325 1 23.040242896629003 1.2983219828020889 12.18989414548166 0 0 0
324 1 24.395993892740016 2.659956139343345 10.805207600643426 0 0 0
329 1 27.114634470252902 0.008923950454854506 10.85855310282473 0 0 0
333 1 28.55490697475127 1.295659014623139 12.21156328069795 0 0 0
332 1 29.997780641262246 2.7046936524531926 10.828260806850466 0 0 0
337 1 -0.013507942495338805 5.511004399219785 10.902983862170188 0 0 0
296 1 3.974025734557907 4.06636045572883 12.189221034772872 0 0 0
345 1 5.4388784908176095 5.3190787367187635 10.948987152655134 0 0 0
304 1 9.448923199940753 4.145253552446449 12.220317584033104 0 0 0
353 1 10.895461886511752 5.483649690650483 10.851438650852938 0 0 0
312 1 14.947742834838149 4.007512176768715 12.228497911696795 0 0 0
361 1 16.230584001698116 5.357993083800769 10.858038939626942 0 0 0
320 1 20.36970009425598 4.099266981916988 12.218674954864532 0 0 0
369 1 21.62056962012047 5.469068267895383 10.843746255971368 0 0 0
328 1 25.71936776177706 3.9950259328365574 12.256566459157439 0 0 0
377 1 27.118491804969327 5.3003038490546555 10.821732824583417 0 0 0
336 1 31.253609308938017 4.032523388490142 12.215637882693517 0 0 0
340 1 2.752522231680433 8.053328583057366 10.787154105715153 0 0 0
341 1 1.3711873754940915 6.848449922883518 12.201427537329732 0 0 0
344 1 3.93706225118083 9.43955433062138 12.140701410662176 0 0 0
348 1 8.209564131004683 8.19566918539225 10.81961240504631 0 0 0
349 1 6.812740233813432 6.723185779990073 12.148444007628468 0 0 0
352 1 9.562399114723965 9.504236787408342 12.114995987394664 0 0 0
356 1 13.603501120906085 8.069966446323376 10.858636745476018 0 0 0
357 1 12.260435426437398 6.7437713997680175 12.256373342211393 0 0 0
360 1 14.986469963448693 9.587339514697218 12.087372283194947 0 0 0
365 1 17.62716011241241 6.705527520109661 12.155124827080776 0 0 0
364 1 18.958227536824147 8.117750477101572 10.813075592704614 0 0 0
368 1 20.360267353252606 9.418746058598432 12.319582963003839 0 0 0
373 1 23.02034290132205 6.717801756371144 12.226320896406035 0 0 0
372 1 24.48740171426778 8.169975176883181 10.94209064014345 0 0 0
376 1 25.847152905500764 9.519501997675174 12.227544566559814 0 0 0
381 1 28.469352571849736 6.723201825709119 12.187471146054623 0 0 0
380 1 29.79509470419742 8.104964866035482 10.879172552768347 0 0 0
384 1 31.215017579391194 9.528494836158231 12.206707081136932 0 0 0
385 1 0.01684165014504414 10.818181518312164 10.79316667447794 0 0 0
389 1 1.388426909356447 12.180349987241009 12.13070135318201 0 0 0
393 1 5.384438348381392 10.771246222617343 10.790863822882505 0 0 0
397 1 6.74268960524793 12.202441121216046 12.137893118364813 0 0 0
401 1 10.955191672519284 10.83541639851331 10.863222031453901 0 0 0
405 1 12.26194829932607 12.131697559569629 12.242417141435004 0 0 0
409 1 16.460330833194188 10.951052510833462 10.819753414665989 0 0 0
413 1 17.822384946435697 12.226800153637498 12.285470188456337 0 0 0
417 1 21.804031126406752 10.873738220349686 11.0447899166958 0 0 0
421 1 23.119631261079167 12.298751014714881 12.224618734466814 0 0 0
425 1 27.100426669047582 10.864366878970495 10.771559459048069 0 0 0
429 1 28.358925429483318 12.223091876260064 12.218478986753905 0 0 0
388 1 2.7572715242215984 13.606182422649175 10.859822225806143 0 0 0
323 1 24.42341757852397 0.10281424921112148 13.594478534781631 0 0 0
392 1 4.067036649699258 14.982753641483985 12.209587397285715 0 0 0
396 1 8.213006943212148 13.579533642046822 10.951798804381154 0 0 0
1169 1 10.934519543094103 16.28204364152731 10.85242015856784 0 0 0
400 1 9.61029543707779 14.9308792114856 12.234613270049959 0 0 0
404 1 13.56934649973706 13.469145355804015 10.810396735306314 0 0 0
1177 1 16.365830839654784 16.19998553802083 10.878310466421746 0 0 0
408 1 15.00072328928753 14.832983037828821 12.251168967561325 0 0 0
412 1 19.07476867978837 13.566665645361816 10.821704480921076 0 0 0
416 1 20.30227125140741 14.928372458471447 12.2705208405214 0 0 0
420 1 24.46969491066857 13.68817981595391 10.85190114708059 0 0 0
424 1 25.879546640064454 15.11047484153181 12.29463456568777 0 0 0
386 1 32.58809752471343 13.481357984876404 13.542030410415528 -1 0 0
390 1 1.321912990126482 14.858188639317033 14.978680850999433 0 0 0
428 1 29.883115163866282 13.494088587758938 10.81787880373774 0 0 0
432 1 31.252995209971978 14.868764913791136 12.206119370128652 0 0 0
290 1 -0.008601213173924534 2.7733304038491196 13.63945200085363 0 0 0
427 1 29.78919675409083 10.891132039783038 13.554609750745508 0 0 0
295 1 3.961534800331221 1.4732590831254608 14.920119836420119 0 0 0
298 1 5.437968431174075 2.8400313147792713 13.486088618159876 0 0 0
27 1 19.028653331083042 0.005534177141306884 2.7241122426816613 0 0 0
303 1 9.451531574018919 1.4301998649161156 14.914274657324771 0 0 0
306 1 10.806304340413035 2.765336650496578 13.609318500655222 0 0 0
307 1 13.569482640264033 0.02268852447897974 13.596621754222552 0 0 0
891 1 19.090409808364743 16.266445226187553 2.786185849738807 0 0 0
311 1 14.827160609504345 1.375900807034563 14.884737856992716 0 0 0
314 1 16.211357188898184 2.697473009410385 13.560830457856518 0 0 0
315 1 19.101354856398984 0.03378364162723073 13.539591515776191 0 0 0
319 1 20.38927928110114 1.3649480910068066 14.969369131603335 0 0 0
322 1 21.780132810569658 2.7754344661427544 13.568411667187373 0 0 0
327 1 25.79912790277097 1.3952990599578987 15.031966897450607 0 0 0
330 1 27.182961013218524 2.733018661362508 13.607013395589805 0 0 0
431 1 31.202913610256655 12.173828545306494 14.961764030122197 0 0 0
335 1 31.229068063331916 1.3595704387810197 14.98291134729415 0 0 0
883 1 13.617095285406137 16.156039201467458 2.710818105374477 0 0 0
294 1 1.363959725321785 4.293712787102197 15.014493301037293 0 0 0
339 1 2.7372401030374336 5.493460261480158 13.639960312570178 0 0 0
881 1 10.945778422654355 16.25923291812968 0.014687351975262119 0 0 0
302 1 6.841162704482156 4.076666727404056 14.937805419313014 0 0 0
347 1 8.255806957388629 5.487538319918522 13.685744610149097 0 0 0
419 1 24.416106851332643 10.85241914666695 13.503112904605086 0 0 0
310 1 12.166878998397927 4.048066004761776 14.967667786272699 0 0 0
355 1 13.511241325980818 5.393860048180156 13.645750812245618 0 0 0
318 1 17.526220285658688 4.022690667529414 14.849982147481109 0 0 0
363 1 18.94925476944716 5.398349307804357 13.519436237473439 0 0 0
326 1 23.131845921359698 4.096510865393789 14.98987620149619 0 0 0
423 1 25.716459423550276 12.313348507160532 14.88999197578039 0 0 0
371 1 24.428958232743565 5.419423815493135 13.54784872450159 0 0 0
334 1 28.48586999217083 4.095001899509502 14.918108136703276 0 0 0
411 1 19.09768424628115 10.847539768193048 13.634810067455255 0 0 0
379 1 29.864580669321693 5.415160254791434 13.52294393008 0 0 0
338 1 32.564123807796335 8.125773245192716 13.50901675265952 -1 0 0
342 1 1.4127893475758933 9.517169957300903 14.82576464676098 0 0 0
343 1 4.1440025601736465 6.815405282007814 14.954414758296357 0 0 0
346 1 5.46923287183961 8.156649623427478 13.53482934754538 0 0 0
350 1 6.80292059097136 9.476279830476356 14.795431994818962 0 0 0
351 1 9.550228087199715 6.914017115270592 14.971207902496396 0 0 0
354 1 10.853742052762103 8.260282642802382 13.552555069815858 0 0 0
358 1 12.136129300090905 9.629286313893715 14.811092967270435 0 0 0
500 1 13.506595074003625 8.229006989338338 16.231440390929688 0 0 0
359 1 14.914078843261974 6.808569483760626 14.943354552460999 0 0 0
362 1 16.338931382436897 8.109967613237696 13.514237046823197 0 0 0
366 1 17.604159809634908 9.539689467720631 14.90462658672043 0 0 0
367 1 20.32299269101122 6.786422092960775 14.916521760131063 0 0 0
370 1 21.700515870105153 8.187100801655301 13.593797834675776 0 0 0
374 1 23.158330756263318 9.513878063356215 14.95232559692573 0 0 0
375 1 25.724096687909924 6.721601078918188 14.970751258275772 0 0 0
378 1 27.10944293937337 8.088937251600798 13.625133062415674 0 0 0
382 1 28.47614122185953 9.480765538169498 14.911797999061402 0 0 0
383 1 31.249733388231753 6.756301040604341 14.901187553019554 0 0 0
524 1 29.741266052921578 7.9977333603498035 16.26705317751582 0 0 0
387 1 2.8136131172876 10.968614406736103 13.508100014957517 0 0 0
391 1 4.193194312076207 12.240081366200974 14.94850190227562 0 0 0
395 1 8.15774502832745 10.825851943054627 13.43051545353216 0 0 0
399 1 9.556023166127224 12.192692058245065 14.924904041502106 0 0 0
415 1 20.47569024711454 12.209499728585518 15.046266673600089 0 0 0
403 1 13.724346793692465 10.921924183178614 13.505961431584875 0 0 0
407 1 14.972115325755047 12.262843968810634 14.955294339785388 0 0 0
553 1 16.33052526355673 10.934203600147644 16.28485164974032 0 0 0
140 1 29.876636940547485 13.588848013714369 0.05079977609558739 0 0 0
905 1 27.13475203404022 16.27368618467999 -0.009174602587464165 0 0 0
436 1 2.621483334384799 2.8931531029699964 16.282809200859447 0 0 0
460 1 18.972541696965095 2.7127556324920405 16.284156362941186 0 0 0
505 1 16.24312634370874 5.365595180631461 16.26497176872883 0 0 0
484 1 2.8152842642275018 8.223447699905094 16.27635712088396 0 0 0
492 1 8.08942808938943 8.202939797195906 16.282569154526353 0 0 0
569 1 27.170130887693666 10.931485444190848 16.22437795649051 0 0 0
529 1 32.56805706757805 10.727240984964048 16.207056151677378 -1 0 0
889 1 16.315141747957817 16.27683188708805 -0.008268034237218558 0 0 0
100 1 2.6825296467850896 13.481951710048424 0.01684376157559342 0 0 0
129 1 21.745926083131177 10.981638006147655 0.034530482641308424 0 0 0
17 1 10.895039211579629 0.04607873949872488 0.03893759645485062 0 0 0
20 1 13.63577544610172 2.6178524900353928 0.000560187561092107 0 0 0
65 1 10.79177134686385 5.434612442857039 -0.010794357522485143 0 0 0
89 1 27.151835424500636 5.331408113880762 0.014607599116772008 0 0 0
68 1 13.680371504578265 8.140147578191183 -0.003240591965003148 0 0 0
92 1 29.93007414500516 8.040974589909073 0.0066578784826347714 0 0 0
873 1 5.398286171014341 16.189091292262635 32.55977656488339 0 0 -1
858 1 27.148384269368705 13.567550011405208 29.882335925520827 0 0 0
737 1 10.91086536826583 0.009890079045405287 27.121317460654392 0 0 0
437 1 1.3624526575099971 1.2732479434490118 17.584674387600895 0 0 0
442 1 5.400867468565684 2.712876776345431 19.01783861487351 0 0 0
445 1 6.75762168923625 1.3085093187966306 17.723041157290226 0 0 0
450 1 10.806762748693284 2.75202762546364 19.01135373415206 0 0 0
453 1 12.149095916487049 1.3604646507363853 17.612593418566256 0 0 0
458 1 16.29956551685755 2.679123347723786 19.07556558725677 0 0 0