LAMMPS data file via write_data, version 19 Nov 2024, timestep = 60000, units = metal

1728 atoms
1 atom types

-0.029605840237998393 32.60960584023894 xlo xhi
-0.029605840237998393 32.60960584023894 ylo yhi
-0.029605840237998393 32.60960584023894 zlo zhi

Atom Type Labels

1 Si

Masses

1 28.0855

Atoms # atomic

2 1 32.55795129156516 2.7600293964051175 2.653377609705358 -1 0 0
3 1 2.6467350517063353 0.07177808527570129 2.6516342241540114 0 0 0
4 1 2.708642822389973 2.7562575574200303 0.0905565487402398 0 0 0
5 1 1.3354980765934947 1.4792347632811957 1.326236995649732 0 0 0
10 1 5.331334956646805 2.7390884709196426 2.779091221765512 0 0 0
11 1 8.143049797857728 32.58972536759984 2.615066352754173 0 -1 0
13 1 6.708978578557472 1.399175083067545 1.407781609557793 0 0 0
17 1 10.820820491488357 32.57729275640264 0.023242724330192147 0 -1 0
18 1 10.761846710685695 2.6207625702341377 2.696548295493554 0 0 0
818 1 32.54120903385811 29.796728535101835 13.569838462727141 -1 0 0
21 1 12.185797936560915 1.2550033576012716 1.392371819754254 0 0 0
26 1 16.215481599339945 2.6738079225678657 2.656078717255441 0 0 0
29 1 17.56957494984363 1.4559660397416851 1.2231157965142014 0 0 0
34 1 21.582983649901788 2.634777990820445 2.650591069179204 0 0 0
37 1 23.011954810021532 1.3247986977691872 1.4545824566130114 0 0 0
35 1 24.50289545948967 32.578116753864656 2.714872277890871 0 -1 0
42 1 27.11533897708981 2.784453694988061 2.7210892427181035 0 0 0
45 1 28.546937275075617 1.376378278048854 1.3298591682672378 0 0 0
51 1 2.6054294268285885 5.5075872016424094 2.764925687251163 0 0 0
8 1 4.028274862753485 4.139987086401151 1.3966277831447762 0 0 0
59 1 8.135208283172155 5.339024949731797 2.7250403223816493 0 0 0
16 1 9.452576046995658 4.055853856794059 1.3578255779537307 0 0 0
65 1 10.874976646050126 5.556128870704471 -0.028520262705845033 0 0 0
67 1 13.548218310717854 5.274219355556571 2.8428767223875067 0 0 0
24 1 14.804031525761635 4.0366577891754165 1.357250100713123 0 0 0
73 1 16.210816670507413 5.413553064317747 -0.024885293481463844 0 0 0
32 1 20.34767036469352 4.079305558738827 1.3088682493270327 0 0 0
75 1 19.03321453593221 5.392848487386099 2.726147757024871 0 0 0
905 1 27.200193490528743 0.022424046999283576 16.285951873331488 0 0 0
40 1 25.72047607104987 4.039938428636522 1.330352362390457 0 0 0
83 1 24.297642195142863 5.354494632125309 2.6696601920261944 0 0 0
89 1 27.217639528204735 5.40298547495402 -0.025016385984487795 0 0 0
48 1 31.226258300181993 4.13972350027414 1.368459039529373 0 0 0
91 1 29.881587916349194 5.383962061828981 2.756894979152862 0 0 0
52 1 2.7197668529159182 8.16490729000148 -0.01968310340929049 0 0 0
53 1 1.2863969182709465 6.875809838284983 1.3933225991779015 0 0 0
58 1 5.391337425129728 8.072966604434209 2.670081891474883 0 0 0
60 1 8.136196922870436 8.187561562091028 0.1410905471037469 0 0 0
61 1 6.798017251114365 6.72803579190195 1.3634400292562057 0 0 0
66 1 10.823882296982683 8.18008694382913 2.7796163883657594 0 0 0
69 1 12.295526853687916 6.822807211081185 1.4005061913793482 0 0 0
74 1 16.306935466113302 8.13214011376395 2.67260900292386 0 0 0
77 1 17.63870473707954 6.668398961681214 1.320787936684747 0 0 0
82 1 21.5521622086217 8.085807940838393 2.6973205213779816 0 0 0
85 1 22.994859833224105 6.78721946171371 1.3913569333874083 0 0 0
84 1 24.48612417893979 8.038005423840884 -0.005740671164353982 0 0 0
90 1 27.10419939310518 8.141987114414627 2.6827709674439673 0 0 0
93 1 28.5888450092788 6.759856240239941 1.3800411962328458 0 0 0
50 1 0.057062292346202526 8.20381183520046 2.7754139950563177 0 0 0
97 1 0.033129277571083734 10.628726858768445 0.12305578203642954 0 0 0
99 1 2.833186471121074 10.837794814826827 2.699445195771785 0 0 0
56 1 4.099947257236447 9.41902983589622 1.3070803389762604 0 0 0
858 1 26.98276968298375 29.845197116132127 13.606626369094158 0 0 0
107 1 8.084328854288092 10.932278449548598 2.653698473585045 0 0 0
64 1 9.52369315263575 9.63631320985793 1.4097983462731702 0 0 0
115 1 13.507295493390979 10.882803368935885 2.6123001382232625 0 0 0
72 1 15.011938532985921 9.58709992575615 1.4451023199109272 0 0 0
80 1 20.313244319534174 9.49063068334462 1.3471421816664977 0 0 0
123 1 19.038325880915284 10.769910528424647 2.7942805828844484 0 0 0
862 1 28.39584738348954 31.201683419140114 14.953265013173086 0 0 0
88 1 25.798872391031253 9.5335659136401 1.3609315868562086 0 0 0
131 1 24.47668114232255 10.851682831856365 2.7627323190364512 0 0 0
137 1 27.167289630333777 10.820194202343082 0.05477595860456752 0 0 0
96 1 31.242714921281262 9.370678638024547 1.469000929419086 0 0 0
139 1 29.843199672861193 10.796582231953014 2.667745165707495 0 0 0
100 1 2.7352182585534126 13.465215796115782 0.02106595002857849 0 0 0
101 1 1.355083677975367 12.002735427033725 1.3620360276290964 0 0 0
106 1 5.439712225499095 13.561183545292499 2.675854687234308 0 0 0
850 1 21.734638518735146 29.930853029018046 13.616407572024446 0 0 0
109 1 6.713782056170189 12.110348352798377 1.2501469331171053 0 0 0
114 1 10.797865218074474 13.609734291146053 2.601212561898736 0 0 0
116 1 13.582332358207845 13.643480917614664 0.02156573662694538 0 0 0
117 1 12.157606116756577 12.213206241526693 1.25264764628612 0 0 0
122 1 16.346362361840004 13.536204504884715 2.6223282926311233 0 0 0
125 1 17.749319047121777 12.263763148533172 1.340546563966747 0 0 0
854 1 23.1033684107122 31.38335578737348 14.994226863714724 0 0 0
130 1 21.64199953315036 13.628943926983611 2.6824823427404154 0 0 0
133 1 23.052534706580104 12.210927620869539 1.4634309522070932 0 0 0
138 1 27.204589030846996 13.508704284328171 2.772262444902952 0 0 0
141 1 28.56646204730201 12.246246620859791 1.3363395779100797 0 0 0
98 1 0.015593568861213214 13.471194676870484 2.6400930177727613 0 0 0
147 1 2.7295899441023503 16.30555811529978 2.7714791347214334 0 0 0
149 1 1.2989964126930695 17.650032974294128 1.4203581997705927 0 0 0
104 1 4.048242831502039 14.904896625668895 1.3810682228180409 0 0 0
155 1 8.122426580235043 16.296995740094875 2.6190025284145406 0 0 0
157 1 6.7233267075239285 17.593692404791057 1.3619434568944349 0 0 0
112 1 9.403241726948325 15.076585036235612 1.2751097107213667 0 0 0
163 1 13.612896243513088 16.299484424185106 2.663827250111844 0 0 0
165 1 12.200331391924122 17.65774591534059 1.4129977318936788 0 0 0
120 1 14.994650044053703 14.98813251684135 1.3012766168741219 0 0 0
603 1 18.973561325256927 -0.019240215178506048 13.485425138217218 0 0 0
173 1 17.73382705117111 17.55725029495232 1.2322032115444694 0 0 0
128 1 20.47643376965031 14.948851388433711 1.1937913614210944 0 0 0
171 1 19.079232333044228 16.216808560887202 2.6174538346584093 0 0 0
842 1 16.37823345350502 29.87480759295271 13.562150225968846 0 0 0
181 1 23.07439438517469 17.602915113651783 1.3028110526511358 0 0 0
136 1 25.678154615663203 14.974863221883908 1.434851106030084 0 0 0
179 1 24.20076632095452 16.329982573062868 2.751594767183411 0 0 0
185 1 27.095140722119083 16.258802708904437 0.043589258456811664 0 0 0
189 1 28.488075155323674 17.583052702943522 1.451054408408616 0 0 0
145 1 -0.017484314427541392 16.2397899927578 0.03837204041783828 0 0 0
144 1 31.267564753659734 14.858390043850674 1.407763521407163 0 0 0
187 1 29.81965172141146 16.27958544838735 2.811028335279077 0 0 0
148 1 2.6593576633655576 19.014250723464585 0.019892629901536042 0 0 0
152 1 3.984747539751421 20.400593755898488 1.2712435670750635 0 0 0
154 1 5.390086037822133 19.047626404054554 2.677325865485396 0 0 0
846 1 17.66140504008475 31.27610814325137 14.916934541150747 0 0 0
160 1 9.336942192328502 20.3862959812311 1.3549964907142424 0 0 0
162 1 10.725745109940453 19.073360325794987 2.6979663737057944 0 0 0
164 1 13.533517033320654 18.909675335671153 -0.013237476107728484 0 0 0
168 1 14.793908328795927 20.210629289395047 1.357307433897948 0 0 0
170 1 16.34467724823126 18.88880416356354 2.6560855333441973 0 0 0
172 1 19.04341407424712 19.06139683797658 -0.029099697229240204 0 0 0
176 1 20.424134401802654 20.398082431595476 1.3184357523883081 0 0 0
178 1 21.68912143299068 18.88660275276439 2.6442630224305583 0 0 0
184 1 25.79949256785139 20.400202473932346 1.3538321900432697 0 0 0
186 1 27.13067871624266 18.987551556692665 2.6758878979506897 0 0 0
146 1 -0.021772468146259882 19.06422821492138 2.8018288014520403 0 0 0
192 1 31.380906549992456 20.360249389292843 1.2888758712586492 0 0 0
838 1 12.227903804581668 31.283872583155453 14.755492176718379 0 0 0
195 1 2.607116209195578 21.83158932357148 2.6376762398967797 0 0 0
197 1 1.3111192240940965 23.19459174271837 1.3314693952724201 0 0 0
201 1 5.424749990602736 21.746741701732894 0.06305636431362961 0 0 0
203 1 8.006419861243952 21.814211841906822 2.659970309149685 0 0 0
205 1 6.749584865304588 23.155619590420834 1.318809201805634 0 0 0
211 1 13.572387607231859 21.643335626673668 2.7290502340792893 0 0 0
213 1 12.192866571464249 22.985426596671598 1.370759202092571 0 0 0
221 1 17.66448738733166 23.074077415586302 1.2999550073895063 0 0 0
219 1 18.94056281761249 21.661429587190334 2.625307611001085 0 0 0
229 1 23.145213576462133 23.15172342892808 1.3259642507384655 0 0 0
227 1 24.547446037313332 21.893303926660654 2.641319272947825 0 0 0
881 1 10.918275840365247 0.0337430770483067 16.24549808285888 0 0 0
237 1 28.43848547494724 23.194148966036565 1.2273846631681016 0 0 0
235 1 29.912701990886546 21.78796404634992 2.428640169910995 0 0 0
194 1 32.51818070243848 24.57929397654634 2.5703343095922095 -1 0 0
200 1 4.02770622634356 25.854000050101323 1.3029458374868006 0 0 0
202 1 5.292018970600695 24.502358815292624 2.7314757978587414 0 0 0
208 1 9.557131875740087 25.74597824950977 1.2852198763608276 0 0 0
210 1 10.875530984470819 24.45465704914396 2.7889684825188557 0 0 0
216 1 14.887724850455943 25.69267736496779 1.368192032788054 0 0 0
218 1 16.236267127896006 24.349558694921488 2.7162619148429537 0 0 0
224 1 20.252997816350547 25.82119457481627 1.39400244064768 0 0 0
226 1 21.71629206298647 24.515120031125598 2.7571730804195203 0 0 0
232 1 25.885126796732717 25.793681314608985 1.3521642040506556 0 0 0
234 1 27.212837946991034 24.444835986018543 2.7482152697580626 0 0 0
834 1 10.871449047510835 29.963353049902754 13.44989731671012 0 0 0
240 1 31.200839519721413 25.934215280745317 1.2047820661734898 0 0 0
243 1 2.652629556602137 27.134133388045704 2.6834491781506506 0 0 0
245 1 1.4523968751215974 28.587222629306783 1.2920160586242477 0 0 0
249 1 5.384291797542461 27.28961813926513 0.025063595881750826 0 0 0
251 1 8.177856688838345 27.151986421469616 2.723471589658912 0 0 0
253 1 6.821563943942739 28.5533654529149 1.4593795504727622 0 0 0
259 1 13.523586956537452 27.142643504858125 2.6338967278279943 0 0 0
261 1 12.25316279370444 28.586871429679302 1.3097720933090466 0 0 0
265 1 16.14408633449735 27.147448838242212 0.08140097287925238 0 0 0
269 1 17.558981058431975 28.552028940793473 1.3077942454274927 0 0 0
267 1 18.864911798612162 27.205612474402347 2.708181813472482 0 0 0
277 1 23.204512635670024 28.514161534252242 1.4255596637875596 0 0 0
275 1 24.482538910003576 27.13014151664215 2.7207406138547205 0 0 0
281 1 27.17343382780899 27.153586910721646 0.06900501456555629 0 0 0
285 1 28.59601114556846 28.5126836217452 1.3845180533425978 0 0 0
283 1 29.880188277083317 27.1899125304803 2.671754084175847 0 0 0
242 1 0.019503890688601453 29.783477057563147 2.7709124351160925 0 0 0
248 1 4.121384837143712 31.341381328994274 1.458532468968669 0 0 0
250 1 5.354372925889894 29.967647183575004 2.806371302793058 0 0 0
587 1 8.092855315517957 32.60650527673962 13.637136435786855 0 -1 0
256 1 9.549071835443938 31.18194726000215 1.3436564351828884 0 0 0
258 1 10.868423580499648 29.837605825749108 2.6972923662024124 0 0 0
19 1 13.61464711355803 -0.029419906523102668 2.750322308628875 0 0 0
830 1 6.809866722310459 31.2357480642821 15.065561830062205 0 0 0
264 1 14.937963024743834 31.2291101186108 1.3280678470193448 0 0 0
266 1 16.16127576829993 29.827366385004996 2.768307778216154 0 0 0
27 1 18.849064773066175 0.03186391178076775 2.664767887807019 0 0 0
268 1 19.075264316774103 29.89105424324726 0.12889414876222133 0 0 0
272 1 20.43170284397838 31.26378080035048 1.469211278765618 0 0 0
274 1 21.751723171952857 29.91749102336526 2.763027346772888 0 0 0
280 1 25.87132922686969 31.15974514349506 1.4029365265606348 0 0 0
282 1 27.12691789494751 29.9280916915923 2.7504384478947204 0 0 0
43 1 29.987327763602515 32.56305965673386 2.6498229095585235 0 -1 0
284 1 29.85633586498411 29.872234592216312 -0.0008839365348021853 0 0 0
288 1 31.407954041690264 31.19815372218282 1.2861295145102039 0 0 0
292 1 2.588331270526849 2.7478088833926377 5.431579839679834 0 0 0
7 1 3.943027729494257 1.43097546161389 4.029354127519639 0 0 0
300 1 8.107518369152162 2.6936728730784814 5.377284818787835 0 0 0
15 1 9.39105977905062 1.2310730011913602 4.072713368514002 0 0 0
308 1 13.62681909721319 2.6663142385312737 5.268805893542252 0 0 0
23 1 14.98023554350595 1.260599268478174 4.0928619270081095 0 0 0
313 1 16.28507680713505 32.60387209854875 5.441101109714751 0 -1 0
31 1 20.275040180149848 1.3339922642102326 4.160506268781806 0 0 0
316 1 18.81445693938835 2.6981082053002314 5.443443634625618 0 0 0
321 1 21.658289373969424 -0.016538262250933588 5.444005399349902 0 0 0
39 1 25.855586932509553 1.2462644646773644 4.104687579517983 0 0 0
324 1 24.458252257682012 2.718137442332072 5.443604080940765 0 0 0
47 1 31.293303816583276 1.268473671233689 4.075386377362163 0 0 0
332 1 29.90273845610391 2.5898169875125365 5.374615153122402 0 0 0
6 1 1.288805559986144 4.172612183150015 4.075863974597171 0 0 0
345 1 5.431267585839399 5.5100491016211315 5.415976446449873 0 0 0
14 1 6.702563556342354 4.0953363769241635 4.088018919252895 0 0 0
353 1 10.74005566045598 5.314859268727021 5.432079953498466 0 0 0
22 1 12.148087287707108 3.9643399070173824 4.0545108365731375 0 0 0
30 1 17.56608259460143 4.092542398433417 3.992677990533096 0 0 0
361 1 16.301767756532566 5.411329611970454 5.468306282366536 0 0 0
38 1 23.000486806670256 3.95179154754197 3.996901106586942 0 0 0
369 1 21.762636675896722 5.35092198136512 5.453824322422248 0 0 0
46 1 28.59749422095322 3.9425710548696187 4.131799607213319 0 0 0
377 1 27.157160327234692 5.359575136029197 5.43539765647251 0 0 0
337 1 0.025853076060087687 5.43853447227245 5.51961799033636 0 0 0
340 1 2.762271981896107 8.241388089839008 5.3508661918616305 0 0 0
55 1 4.002167529344991 6.81998744580701 4.1107855923101 0 0 0
348 1 8.196529493364539 8.090496555743577 5.425737241115058 0 0 0
63 1 9.582955553031958 6.730129984659802 4.120960847310048 0 0 0
356 1 13.534816804693383 8.226571289577564 5.381697165646305 0 0 0
71 1 14.925738041963818 6.81153506186785 4.034679220072902 0 0 0
79 1 20.257592380126862 6.741544535298458 4.199571744546844 0 0 0
364 1 18.971647625108695 8.080875000710574 5.540835085474091 0 0 0
87 1 25.81523086759178 6.754558191751186 4.008419986176909 0 0 0
372 1 24.409301082683186 8.14796535198043 5.27495020858476 0 0 0
95 1 31.357525476013873 6.7756866190538885 4.0576667283009495 0 0 0
380 1 29.867059954134678 7.985250560474445 5.376585782374638 0 0 0
54 1 1.3929509253974166 9.499365160274852 4.044575229466572 0 0 0
385 1 0.010570299174339815 10.820312679459551 5.40436048327814 0 0 0
393 1 5.415540852762468 10.807152423496005 5.383083436882678 0 0 0
62 1 6.82368903699233 9.387757939117728 3.9566220654921818 0 0 0
401 1 10.737284722327768 10.908061246891108 5.492907888786586 0 0 0
70 1 12.164936776609121 9.539167288791091 4.105452747782478 0 0 0
78 1 17.633755217055167 9.378242229262638 4.120705094860611 0 0 0
409 1 16.263800013878765 10.768023316119917 5.315613536555109 0 0 0
86 1 22.937339999466026 9.554416682354999 4.018384363854731 0 0 0
417 1 21.726507952707983 10.9970877580322 5.439185812807036 0 0 0
94 1 28.546806020839046 9.361760264788426 3.998592430804868 0 0 0
425 1 27.164840923089557 10.781181450617652 5.417757645347781 0 0 0
388 1 2.686272632336258 13.513436556637807 5.388013238321888 0 0 0
103 1 4.120277933581682 12.250612074709254 4.090915053254877 0 0 0
396 1 8.074461610145493 13.542848951415431 5.393105236075227 0 0 0
111 1 9.39940988987784 12.242725133812398 4.063023966953771 0 0 0
404 1 13.642774734111072 13.639271598682123 5.325159771044592 0 0 0
119 1 14.898437155447047 12.202526942966063 3.9688682768416106 0 0 0
127 1 20.331439545946818 12.273142560139934 4.052444224151467 0 0 0
412 1 19.057046309761095 13.573520303149134 5.465490054554281 0 0 0
135 1 25.845211285905958 12.11842140793757 4.0926014456271504 0 0 0
420 1 24.38488475980335 13.526191742470429 5.3724553688817265 0 0 0
143 1 31.284806204099173 12.155207379548203 4.0123397252279585 0 0 0
428 1 29.92339966550634 13.528052462591548 5.4409873889214095 0 0 0
102 1 1.3070767894855917 14.887008784571274 4.0264052767142005 0 0 0
151 1 4.135588336055102 17.663452904344247 3.992898868268614 0 0 0
441 1 5.503665304547639 16.32874399889299 5.457569457918488 0 0 0
110 1 6.8467318248868985 14.946785746483778 4.08540787358709 0 0 0
159 1 9.413998670595083 17.677757601699465 4.020940769762191 0 0 0
449 1 10.738202787694211 16.308516665485445 5.308892451798431 0 0 0
118 1 12.1295912908408 14.949709843271727 4.101142423743753 0 0 0
126 1 17.659455621332327 14.921652711769585 4.02354429871692 0 0 0
167 1 14.922935321196764 17.634738225722444 3.998843343326003 0 0 0
457 1 16.350029112539808 16.253273089400917 5.346540376987285 0 0 0
175 1 20.29141945515444 17.60219079473709 4.07536190990753 0 0 0
134 1 23.01464544225974 14.835606586463527 4.044306157383338 0 0 0
465 1 21.657214508139365 16.288610307126852 5.371173456810763 0 0 0
183 1 25.738922868597605 17.637204066745287 4.096215171862689 0 0 0
142 1 28.46533160199342 14.907019872629334 4.117108355984329 0 0 0
473 1 27.076930121849937 16.27603706188488 5.394508263353545 0 0 0
433 1 0.0046105041462780605 16.280025554242485 5.445410209431694 0 0 0
191 1 31.234672761897464 17.762943212566476 4.103996565215473 0 0 0
150 1 1.453854648817188 20.52762682695137 4.149916148453173 0 0 0
436 1 2.7370571715914283 19.040333785645075 5.410392300472967 0 0 0
158 1 6.823562615169976 20.51873464991673 4.0550947037190275 0 0 0
444 1 8.203031708990215 19.012786457549954 5.414476443466523 0 0 0
166 1 12.211230511505041 20.36799047503004 4.057170250349102 0 0 0
452 1 13.511342834048097 18.96942418216065 5.464144462738119 0 0 0
174 1 17.51076632742412 20.432437878188395 4.023242922099174 0 0 0
460 1 18.945404089083407 19.185823061719628 5.342907060672306 0 0 0
182 1 23.139925131914108 20.360121193016052 3.8985567551131752 0 0 0
468 1 24.424263541793664 19.041043975375775 5.442933387444168 0 0 0
190 1 28.60234057895981 20.341789744726565 3.962772571657501 0 0 0
476 1 29.78341969912014 19.075771666458095 5.45446734329002 0 0 0
199 1 3.9018427803655507 23.053601128365198 4.155003063792725 0 0 0
489 1 5.5394824697977505 21.848935440965864 5.385483004109531 0 0 0
207 1 9.51563137768911 23.022695314493365 4.086509699146842 0 0 0
497 1 10.823811138950742 21.789618673361705 5.4111139888936926 0 0 0
215 1 14.949840462551782 23.05333765822049 4.141591910827873 0 0 0
505 1 16.289834129180647 21.696240392872305 5.438780276400886 0 0 0
223 1 20.260663398138522 23.09375413507297 4.00435253144067 0 0 0
513 1 21.807429398269864 21.709377816728214 5.2929499046165756 0 0 0
231 1 25.843959545505943 23.120343467322698 4.076910625936472 0 0 0
521 1 27.30038055668106 21.754853740388466 5.347363905944115 0 0 0
481 1 32.59129424520698 21.766239297888628 5.392278832672265 -1 0 0
239 1 31.15788229343772 23.16356931948285 4.015448669333446 0 0 0
198 1 1.2961509084651415 25.807178275596783 4.1183285992256815 0 0 0
484 1 2.613393287276338 24.454295196372918 5.444108636164102 0 0 0
206 1 6.860668706529193 25.73770713264263 4.056747416803667 0 0 0
492 1 8.11800876807741 24.50054503600972 5.402892791584633 0 0 0
214 1 12.14678385115497 25.838670187635177 4.032775851735988 0 0 0
500 1 13.500166319627771 24.469901740570382 5.504522734853544 0 0 0
222 1 17.554213347405888 25.75214576210252 4.003393245399831 0 0 0
508 1 18.90499340791546 24.43526392875786 5.361376526802166 0 0 0
230 1 23.162923885046094 25.794922398866728 4.116088819933258 0 0 0
516 1 24.414986535594974 24.44822710126237 5.454945891684505 0 0 0
238 1 28.597250379786484 25.8547988781366 4.025911974447175 0 0 0
524 1 29.8373825911045 24.43626687780023 5.415037434474021 0 0 0
247 1 4.04862465431627 28.52121514092474 4.029610628618741 0 0 0
537 1 5.442979820694288 27.034459071017505 5.302032357181125 0 0 0
255 1 9.51270744749297 28.503081256412273 4.066420499490912 0 0 0
545 1 10.90509847517682 27.131778378655778 5.353771684471143 0 0 0
263 1 14.77877825585443 28.426508082889544 4.118646269439417 0 0 0
553 1 16.299414877557112 27.0720493990033 5.363435762241257 0 0 0
271 1 20.404370340690175 28.51726730637831 4.098560548667503 0 0 0
561 1 21.746537260183263 27.06688737134094 5.396772334310973 0 0 0
279 1 25.806436413009266 28.59183843544844 4.068757306561125 0 0 0
569 1 27.25260366409159 27.182709394816907 5.457413873418756 0 0 0
529 1 -0.01737547402056805 27.221806975219295 5.429754260295412 0 0 0
287 1 31.236049653129875 28.40395874129356 4.06046744997717 0 0 0
289 1 0.10136895439145943 32.5440627298606 5.399147929882377 0 -1 0
246 1 1.426564115188464 31.158961152726523 4.042184080049507 0 0 0
532 1 2.750206328338191 29.863052802053293 5.397976945106766 0 0 0
297 1 5.36486727375651 0.041333339410130066 5.3628239031643385 0 0 0
254 1 6.783562753374489 31.294589323702493 4.010821910666312 0 0 0
540 1 8.081617929094781 29.833753454073666 5.395685532723455 0 0 0
305 1 10.788096239577754 32.5741527134321 5.454707907884694 0 -1 0
262 1 12.216044150348669 31.187456714783256 4.096828511960811 0 0 0
548 1 13.541715502254482 29.88151404446964 5.461341061878136 0 0 0
270 1 17.577976560061646 31.26207127415162 4.075773360497275 0 0 0
556 1 19.001878804603056 29.909479885865895 5.336275248642839 0 0 0
278 1 23.050845775942502 31.273289839419338 4.136661464079501 0 0 0
564 1 24.44025862929763 29.77339475707487 5.445212443644524 0 0 0
329 1 27.17562733199441 32.54599506792778 5.39265984913356 0 -1 0
286 1 28.60020150341172 31.228683782022806 4.034234809160941 0 0 0
572 1 29.880346790562005 29.865727887192204 5.301766687707914 0 0 0
290 1 -0.014701791188009706 2.7087055145749166 8.23460136184927 0 0 0
293 1 1.2852751208181754 1.3398930583270496 6.807581726874313 0 0 0
295 1 3.9922661460860764 1.2819218047614465 9.440775716399575 0 0 0
298 1 5.3918014017414455 2.6469673319207274 8.059685065828946 0 0 0
299 1 8.084260132940669 0.0006907722649196898 8.160041778695861 0 0 0
301 1 6.735539440955102 1.3515245845534303 6.7097918820256846 0 0 0
303 1 9.53826647955685 1.2800049909883269 9.437951816033552 0 0 0
306 1 10.947338699613951 2.603148482789549 8.071507273847832 0 0 0
309 1 12.28003457043946 1.2385002503396472 6.680766472783158 0 0 0
311 1 14.891209358653782 1.4085309974309177 9.523065067627146 0 0 0
314 1 16.2061848049884 2.7022288288080443 8.11289020991293 0 0 0
317 1 17.511131903989348 1.3247640368158915 6.771578818129351 0 0 0
319 1 20.310437144892205 1.2453553342424524 9.419460154830332 0 0 0
322 1 21.685176855317103 2.5886389930569433 8.059853319635632 0 0 0
325 1 23.074968630679095 1.265276032842155 6.691895538807316 0 0 0
323 1 24.472170792184183 32.58788303136656 7.979116473564804 0 -1 0
327 1 25.748665266022588 1.3020326151135981 9.409032109528606 0 0 0
330 1 27.12830070717659 2.700654275115489 8.124381411619948 0 0 0
333 1 28.425443819536163 1.2580016761686403 6.751058481918177 0 0 0
335 1 31.214009479464725 1.3106744044587442 9.557330115441166 0 0 0
294 1 1.3521444241306895 4.084190851815887 9.601462838551692 0 0 0
339 1 2.6096817789201094 5.4656000239167115 8.170071306261871 0 0 0
296 1 4.020480379250325 4.106906849650323 6.7425810789956895 0 0 0
302 1 6.7287594882330435 3.9760753113137075 9.458701625798781 0 0 0
347 1 8.083325384113579 5.2582794948400124 8.164302355815538 0 0 0
304 1 9.44029006538946 3.953749595825316 6.899596973423028 0 0 0
310 1 12.264791325683484 3.976867671958917 9.379739051059278 0 0 0
355 1 13.581059159094648 5.391385335229018 8.078706721940103 0 0 0
312 1 14.829948503164392 3.9994383405574156 6.734024712472672 0 0 0
318 1 17.599840279761022 4.026659100297091 9.403325546363678 0 0 0
320 1 20.270194848891425 4.067699290662173 6.773766490125188 0 0 0
363 1 18.953920989777643 5.433502072925413 8.226161195853729 0 0 0
326 1 23.04345805084681 4.002514278604907 9.457143135649437 0 0 0
328 1 25.766202975564465 4.112764872202003 6.809120720032627 0 0 0
371 1 24.454243334872316 5.471977495681836 8.10349742531991 0 0 0
334 1 28.619796019961367 4.020811150419184 9.490453511679833 0 0 0
336 1 31.251094015109686 4.048964426493464 6.709133900188348 0 0 0
379 1 29.942286234971853 5.349331281000216 8.177817977774987 0 0 0
341 1 1.4165793111110674 6.933071387794523 6.651964035340982 0 0 0
343 1 4.014820904845609 6.722206143656857 9.527454949113386 0 0 0
346 1 5.316729318997596 8.20452423102559 8.061960313903537 0 0 0
349 1 6.83323849450303 6.772489686115413 6.78246394999728 0 0 0
351 1 9.46260077754152 6.655104827344023 9.451626660728518 0 0 0
354 1 10.834931226757567 8.006855771742554 8.160193174309747 0 0 0
357 1 12.181788480620922 6.718686381228656 6.736350041516478 0 0 0
359 1 14.95312715808031 6.66733119044631 9.471263426231928 0 0 0
362 1 16.15474443535025 8.142664195730328 8.213656331173814 0 0 0
365 1 17.59221592075666 6.786669097782135 6.862489721383759 0 0 0
367 1 20.42965603317539 6.697933821224925 9.52566310997958 0 0 0
370 1 21.753935498348877 8.138436291452331 8.20363174366375 0 0 0
373 1 23.07833501747252 6.792074752772956 6.773237214492044 0 0 0
375 1 25.800086634730693 6.731178842978262 9.420936696113936 0 0 0
378 1 27.16667426661111 8.102935816297272 8.041195248787407 0 0 0
381 1 28.529881273012357 6.670851732806295 6.838988301324845 0 0 0
338 1 0.099974433618371 8.166014332682094 8.153956730103152 0 0 0
383 1 31.25192303986953 6.7972571003772435 9.374321502185435 0 0 0
342 1 1.3729770652211297 9.616916049323391 9.582255870383216 0 0 0
387 1 2.7128485251774825 10.899283968577755 8.093741107070139 0 0 0
344 1 4.0261871567693435 9.52410767914844 6.745360924140905 0 0 0
350 1 6.819382243392576 9.402199378004498 9.436996722923093 0 0 0
395 1 8.144554718122246 10.926498255728688 8.17661256109399 0 0 0
352 1 9.46063837874027 9.445455494737098 6.853904540000647 0 0 0
358 1 12.285092623193492 9.346477187368686 9.469426506732889 0 0 0
403 1 13.66185402743932 10.790496418128003 8.131858823809942 0 0 0
360 1 14.958409625913056 9.489349277620702 6.725822899185262 0 0 0
366 1 17.651473658182336 9.451108694610264 9.450399028387086 0 0 0
368 1 20.418751649845827 9.49890339872756 6.765745738220762 0 0 0
411 1 19.007580130117592 10.874711281026169 8.096380814792631 0 0 0
374 1 23.15052121359455 9.482399262884861 9.568994618754424 0 0 0
376 1 25.763967445475092 9.443662931406733 6.784030412581886 0 0 0
419 1 24.43508932736509 10.824406057317468 8.11742337079496 0 0 0
382 1 28.548576310203043 9.496690715009187 9.440814545270483 0 0 0
384 1 31.2980234951591 9.435740176112999 6.836903615616104 0 0 0
427 1 29.91996133900913 10.88107961260357 8.083458491199279 0 0 0
386 1 -0.019654678159821935 13.572506466281014 8.048387929851401 0 0 0
389 1 1.318419683989279 12.188478752653708 6.763422885788808 0 0 0
391 1 4.115630076336975 12.14130671415916 9.439867687404853 0 0 0
394 1 5.459548343798931 13.468714615747666 8.182865236692908 0 0 0
397 1 6.735161231647146 12.147739513841849 6.743922477390642 0 0 0
399 1 9.523965106994002 12.101241535283394 9.491299522130662 0 0 0
402 1 10.79055643201351 13.5502273327612 8.016746241228514 0 0 0
405 1 12.234751935109326 12.162002377018815 6.814366059521286 0 0 0
407 1 15.083848633462157 12.139434826830051 9.445314525970078 0 0 0
410 1 16.35276062206667 13.566891175519487 8.156360537286357 0 0 0
413 1 17.58027695283333 12.212869416147367 6.77828082971717 0 0 0
408 1 14.935988854499962 14.873104018941254 6.821543138950584 0 0 0
415 1 20.43033727764698 12.279197107878254 9.411187943507617 0 0 0
418 1 21.787323075299767 13.647637353370417 8.07247799473834 0 0 0
421 1 23.116220890426852 12.240689316661777 6.79544101285732 0 0 0
423 1 25.741705039350965 12.21772119555332 9.53976331005777 0 0 0
426 1 27.116960186286263 13.491397289982796 8.088740206234482 0 0 0
429 1 28.45384004223351 12.140288249348398 6.787163038194986 0 0 0
431 1 31.20849282079651 12.195456887987024 9.446908928661372 0 0 0
390 1 1.4037099854217432 14.781843861627234 9.48466386464337 0 0 0
435 1 2.672930093007558 16.1894435849763 8.030518768735384 0 0 0
437 1 1.3395627885293928 17.65483325353435 6.828977684183622 0 0 0
392 1 4.096626751079511 14.885717355563997 6.737297461061519 0 0 0
439 1 3.954311723646553 17.590751144237444 9.417016987998034 0 0 0
398 1 6.764790185864678 14.952587103042783 9.488843409418552 0 0 0
443 1 8.096142296086017 16.38357252361673 8.214299176061376 0 0 0
445 1 6.840593666355846 17.719778979443053 6.758446416658461 0 0 0
400 1 9.425168453568775 15.00004311029923 6.783150337786755 0 0 0
447 1 9.570227535954082 17.702687049346736 9.458025076602636 0 0 0
406 1 12.211851833743387 14.85545329375209 9.44227936053781 0 0 0
451 1 13.557619385221837 16.346834954511365 8.153217214629398 0 0 0
453 1 12.157107432982718 17.61210474547408 6.707134193958466 0 0 0
414 1 17.669431548280635 14.970485091061049 9.493192887691036 0 0 0
455 1 14.998414440535075 17.639300601512545 9.638235116826712 0 0 0
461 1 17.685757591126578 17.635914159662548 6.746382877155146 0 0 0
416 1 20.41181086529274 14.991951478568815 6.783973127965791 0 0 0
459 1 19.082978569489185 16.29664944533365 8.202200455912404 0 0 0
463 1 20.485148841127632 17.63912354601046 9.569724924451092 0 0 0
422 1 23.13419215952542 14.99177847447672 9.43058165759231 0 0 0
469 1 23.034584357449063 17.601052930162204 6.843623059914225 0 0 0
424 1 25.80402546481658 14.893207434061342 6.732719089499823 0 0 0
467 1 24.423919439047303 16.311539823206957 8.014503961930787 0 0 0