LAMMPS data file via write_data, version 19 Nov 2024, timestep = 60100, units = metal

1728 atoms
1 atom types

-0.024577942399179875 32.604577942399686 xlo xhi
-0.024577942399179875 32.604577942399686 ylo yhi
-0.024577942399179875 32.604577942399686 zlo zhi

Atom Type Labels

1 Si

Masses

1 28.0855

Atoms # atomic

2 1 0.11940123724010149 2.739712970283884 2.728582761092136 0 0 0
426 1 27.038379110290578 13.598237203034834 13.503184453558756 0 0 0
5 1 1.4713097197682865 1.4359440278542959 1.3177990735341936 0 0 0
1187 1 24.43183620596863 16.23701501038089 13.658445638776008 0 0 0
10 1 5.316512166915746 2.870107372350308 2.5034909119995836 0 0 0
12 1 8.138753887986628 2.6755034019554733 0.0986191009812299 0 0 0
13 1 6.727173597929009 1.365922734128992 1.351101132518159 0 0 0
18 1 10.952564115305854 2.741791484428048 2.6925341457117984 0 0 0
20 1 13.731128160681795 2.641518869130951 -0.0036396162393668614 0 0 0
21 1 12.267810638441548 1.4376933122380915 1.307029930987333 0 0 0
26 1 16.31103714285276 2.8339654748539815 2.584555317328859 0 0 0
29 1 17.65356913707627 1.5106128434132327 1.221335847644558 0 0 0
27 1 18.929461808926966 0.12672563137870174 2.587641485313205 0 0 0
1193 1 27.21828589890844 16.28802182911997 10.827780989962688 0 0 0
430 1 28.512605774125138 14.931941341360181 14.980119139619655 0 0 0
34 1 21.68797365525803 2.8664748809928176 2.625835568262188 0 0 0
37 1 23.000901695120625 1.2914489416105737 1.4452368612008886 0 0 0
36 1 24.391013919915576 2.575936373375828 0.11144332907121243 0 0 0
1329 1 21.70844778822989 16.197967966869413 16.262803259138742 0 0 0
42 1 27.23954853094693 2.7051131314194987 2.734332138268508 0 0 0
45 1 28.54421913281578 1.3802521637671417 1.3488306807699806 0 0 0
44 1 29.962993018028065 2.740717747641317 0.006106825743476394 0 0 0
51 1 2.6855540938413083 5.476121214562409 2.6718252432844034 0 0 0
8 1 3.8970636036444524 4.150212612486994 1.1971534456646904 0 0 0
1153 1 -0.005201965138177481 16.287346308583754 10.911005473827078 0 0 0
59 1 8.08618745515214 5.403476929752352 2.7524383987120635 0 0 0
16 1 9.577185157581495 4.000113474054364 1.3841800536017081 0 0 0
65 1 10.988416188459464 5.410082264702943 0.014211457716978602 0 0 0
67 1 13.609146481198627 5.421162533631937 2.828533587239389 0 0 0
24 1 14.892248256069626 4.15013220441242 1.3283655537882861 0 0 0
32 1 20.386282091304214 4.129054440044722 1.2306150277958816 0 0 0
75 1 19.002766112710592 5.4731643059741 2.6615093186165457 0 0 0
81 1 21.77202622782759 5.495719630633427 0.05828236662788692 0 0 0
40 1 25.808022014076847 4.027941008357435 1.405871904577751 0 0 0
83 1 24.507934870485446 5.538556163361666 2.6408113872713956 0 0 0
89 1 27.21002388744125 5.37056465680459 0.09046258638605358 0 0 0
48 1 31.347628641029715 4.146942827241602 1.3933314117771722 0 0 0
91 1 29.800108586085052 5.383118796095458 2.666048960555007 0 0 0
50 1 32.50585870361763 8.161173981229998 2.85393370892556 -1 0 0
52 1 2.62601558646783 8.175447801688879 0.050893677236183994 0 0 0
53 1 1.27339892975028 6.871853101656837 1.385865554040004 0 0 0
56 1 4.139458962300329 9.38659572059938 1.2603585323699258 0 0 0
58 1 5.486120119632131 7.98025466643184 2.648153150886902 0 0 0
187 1 29.685965114572152 0.04238376811395028 8.18021453113975 0 0 0
61 1 6.809121079407917 6.65704066139074 1.2072624084419836 0 0 0
64 1 9.461572833513994 9.497513835914148 1.2749801069091842 0 0 0
66 1 10.909525928202772 8.103836441415805 2.5620003045980377 0 0 0
68 1 13.484527169423965 8.052706825904785 0.06582212919442552 0 0 0
69 1 12.330399546943637 6.730758405019198 1.459938189569241 0 0 0
72 1 14.834447242036958 9.50646111839571 1.2947308380525908 0 0 0
74 1 16.15710759315354 8.054128612166636 2.617297831343601 0 0 0
77 1 17.61466334482758 6.824075317646157 1.2458465221940764 0 0 0
80 1 20.348497140577834 9.478380593327923 1.3671470164197699 0 0 0
82 1 21.704724940570046 8.197930476620622 2.6942202293395976 0 0 0
85 1 23.108039643773683 6.981821573767405 1.3843278670785861 0 0 0
163 1 13.634268280517352 0.021798300390003078 8.022918232907216 0 0 0
88 1 25.720729792484303 9.60300426850514 1.3013510006318132 0 0 0
90 1 27.134648739634102 8.251080235355857 2.6711838653915456 0 0 0
93 1 28.40635720119387 6.854408251115048 1.3657313842904053 0 0 0
96 1 31.27063051325476 9.554483564286286 1.2906506097121606 0 0 0
99 1 2.84804486033167 10.803311140561249 2.7130790191274974 0 0 0
101 1 1.5215839795973083 12.29696880625876 1.3379131709751093 0 0 0
147 1 2.6138083664984513 0.048972543538667423 8.091803940799199 0 0 0
107 1 8.126150360423352 10.780722049348276 2.6236718176846856 0 0 0
109 1 6.829634856238391 12.181188372137886 1.255560806673962 0 0 0
115 1 13.583919171459021 10.848684569672232 2.738477562364516 0 0 0
117 1 12.172034303843938 12.303840229785639 1.444601512138534 0 0 0
121 1 16.26399692734203 10.852704050664963 0.046500504521264266 0 0 0
125 1 17.635963643390024 12.195614883104488 1.480592018867611 0 0 0
123 1 18.95439500093043 10.809740444362014 2.7210467243459733 0 0 0
133 1 23.05475873843955 12.210307180014528 1.3236467661542128 0 0 0
131 1 24.44894178217519 10.938795904293249 2.6776509417910126 0 0 0
141 1 28.590672949855286 12.292299773993957 1.340344190169589 0 0 0
139 1 29.967039254447855 10.79313390421639 2.77053602405761 0 0 0
867 1 2.76556792362349 16.268063125133423 2.7235656158899437 0 0 0
104 1 4.159745595061497 14.932607802535744 1.4085633183890476 0 0 0
106 1 5.471089604258078 13.468612170921002 2.7089193380611243 0 0 0
418 1 21.841236308891776 13.498468382955288 13.496500376797695 0 0 0
112 1 9.564138369651902 15.036363932898297 1.3867083986712547 0 0 0
114 1 10.826026414215603 13.657855924264727 2.8167809592218376 0 0 0
120 1 14.952623487385315 14.949140376492315 1.342639181384754 0 0 0
122 1 16.30583670458641 13.580501460040702 2.7340546888255837 0 0 0
124 1 18.925439798312826 13.566983810072838 0.02321637964646983 0 0 0
128 1 20.307188855457316 14.885195197835971 1.3401633742393715 0 0 0
891 1 19.002106566129406 16.269728050363256 2.7655528706730386 0 0 0
130 1 21.634771653068334 13.471518405837935 2.684555353777305 0 0 0
136 1 25.635096850558977 14.925162220887888 1.2031864711563054 0 0 0
138 1 27.172263170369778 13.644732265974708 2.5402079036219316 0 0 0
98 1 -0.012820949333459453 13.546001144128793 2.692068180882526 0 0 0
907 1 29.931853162954287 16.22490179387379 2.667247189599197 0 0 0
144 1 31.301763102445932 14.925247936466361 1.2376545063493987 0 0 0
148 1 2.7700794021548534 2.5863974770428486 5.296684425488525 0 0 0
7 1 4.135348766099701 1.3147490619506077 3.960191618602285 0 0 0
422 1 23.078519135201542 14.863333597521553 14.870339372747129 0 0 0
156 1 8.155233084747632 2.6924217320056116 5.3687597042078785 0 0 0
15 1 9.576323948225193 1.3303500351593707 4.0727480097986355 0 0 0
164 1 13.591174338514255 2.66304862008269 5.3584485052114035 0 0 0
23 1 14.955101901438681 1.4159873403525907 3.922653562660255 0 0 0
31 1 20.317050201413274 1.4799974706440178 3.982052969441825 0 0 0
172 1 19.008859655162645 2.7734573067661734 5.38222440373816 0 0 0
39 1 25.75719907745006 1.4166169607135524 4.02261791147896 0 0 0
180 1 24.326489382931037 2.7859858039934946 5.415884741179103 0 0 0
185 1 27.12883720412244 0.05638853030447971 5.455303133733366 0 0 0
47 1 31.293914903495125 1.4658537367894944 4.120449355702127 0 0 0
188 1 29.904655681176592 2.771588609556335 5.413047830747435 0 0 0
6 1 1.5295075116345793 4.06668465400757 4.071572216193171 0 0 0
193 1 0.005704390150707805 5.424581690540218 5.309700172188888 0 0 0
201 1 5.367201312225448 5.401909691681859 5.466209024808482 0 0 0
14 1 6.721062329531867 4.062713358454597 4.077517672774225 0 0 0
209 1 10.812509321259219 5.345906684825493 5.405737213145269 0 0 0
22 1 12.22760716949877 4.014801863452868 4.101673013716511 0 0 0
30 1 17.57232650801105 4.137905897318175 4.093262770946838 0 0 0
217 1 16.297608446358424 5.528332735404689 5.4547076973371595 0 0 0
38 1 23.16572110628841 4.106904909323831 4.02648891058165 0 0 0
225 1 21.689759020263253 5.435165550950555 5.39681139610868 0 0 0
46 1 28.491862099148978 4.1490900189773665 4.144330283169684 0 0 0
233 1 27.15465773426989 5.516302951665255 5.408365674855614 0 0 0
54 1 1.3601105854982345 9.452717154400885 4.137087436944313 0 0 0
196 1 2.8189073672946683 8.108065233554196 5.435483129401032 0 0 0
55 1 4.135353844278306 6.662453296783149 4.001208598790528 0 0 0
62 1 6.738215990276747 9.35655557717186 4.063661738333939 0 0 0
204 1 8.16162490036476 8.128477972542182 5.4624085600439525 0 0 0
63 1 9.454844631740349 6.7733887575686476 3.9236483840170364 0 0 0
70 1 12.233640612886452 9.408775980753754 3.9912760825128895 0 0 0
212 1 13.482383868192082 8.015363770463145 5.52752526357649 0 0 0
71 1 14.914644482950406 6.8022007288599085 4.040157264646089 0 0 0
78 1 17.481014643043274 9.506766401309017 4.104773871412926 0 0 0
79 1 20.40892694803065 6.811407176189362 3.9957706079116653 0 0 0
220 1 19.042536466866277 8.264638669573628 5.317760768484676 0 0 0
86 1 23.058335151299637 9.52917580173677 4.061016898182219 0 0 0
87 1 25.79727399021353 6.925027281621003 3.954156111290787 0 0 0
228 1 24.50285861774475 8.275749269385416 5.389984620346713 0 0 0
94 1 28.52411137971947 9.500810862468832 4.0870647737581285 0 0 0
95 1 31.052215911426163 6.781964392309163 4.061260646696389 0 0 0
236 1 29.87905968882207 8.184033397167731 5.552156530841978 0 0 0
241 1 0.0018269940471754295 10.81191857676396 5.45349642281099 0 0 0
103 1 4.2095213079534055 12.25011103664589 4.177463224069718 0 0 0
249 1 5.518554611603604 10.857575297204816 5.433791913841948 0 0 0
111 1 9.411878764782617 12.121145570248354 3.966911354301415 0 0 0
257 1 10.836587912982013 10.83229676260764 5.395821229555754 0 0 0
119 1 14.965093057327527 12.258461563218683 4.120499762020198 0 0 0
265 1 16.195444469291825 10.781552431648521 5.501581411039587 0 0 0
127 1 20.372514285011874 12.227888330207989 4.141780468380133 0 0 0
273 1 21.73407358183304 10.905759769790562 5.466046407739126 0 0 0
135 1 25.90903482329187 12.257013967338708 4.040343163241517 0 0 0
281 1 27.179651822517357 10.84561539159187 5.4302121954474005 0 0 0
143 1 31.27120416531134 12.15425127335485 4.083975663989508 0 0 0
102 1 1.3732327598613723 14.848996649204533 4.13560303748534 0 0 0
244 1 2.729938573066315 13.532314796992893 5.494376038150806 0 0 0
110 1 6.761758942823001 14.970598550159849 3.9739296849323797 0 0 0
252 1 8.146303924273385 13.594513058459361 5.29547807861459 0 0 0
1179 1 19.007091358808054 16.289620824770747 13.560057077828452 0 0 0
118 1 12.143169205514258 15.03153527944922 4.094268290276062 0 0 0
260 1 13.532504333664788 13.641493008861731 5.371732561340994 0 0 0
126 1 17.62138835328637 14.97433401096979 4.114992661653637 0 0 0
268 1 19.016277431752453 13.63733097721431 5.47384000952525 0 0 0
1041 1 21.638642678779696 16.209015993196633 5.360641370047501 0 0 0
134 1 23.11848740722811 14.787232148348139 4.084558420318023 0 0 0
276 1 24.517535498108934 13.545419294165294 5.437326931968752 0 0 0
410 1 16.236447395627575 13.542977561279317 13.664620918658034 0 0 0
142 1 28.578454888821675 14.940461943044692 4.008474901332072 0 0 0
414 1 17.6955166512203 14.91118802399062 14.8954143821356 0 0 0
284 1 29.97355141025919 13.543974433869979 5.405529401668517 0 0 0
146 1 0.0467447416356331 2.6834243553761965 8.097222558440185 0 0 0
149 1 1.3674480459339797 1.3361976231540909 6.695722646431485 0 0 0
151 1 3.975998700376126 1.343541356159632 9.48739660067163 0 0 0
154 1 5.4988557391164905 2.680032768028232 8.124128572449669 0 0 0
157 1 6.814528808302868 1.242836403604169 6.763803381878196 0 0 0
159 1 9.560251231104921 1.2903470183803472 9.457267728513182 0 0 0
162 1 11.025886412457213 2.6908067001987015 8.039747776823322 0 0 0
165 1 12.243254181750592 1.3011306962014748 6.6196673057314435 0 0 0
167 1 15.064565312690435 1.3575352619807857 9.481756779744055 0 0 0
170 1 16.44639951802513 2.7643462777307364 8.236110152528767 0 0 0
173 1 17.557026779812436 1.3542999018550987 6.692762267629689 0 0 0
171 1 19.08238576453893 0.035795775827851144 7.9386975448480985 0 0 0
175 1 20.479076620565166 1.468784969962569 9.281962341936305 0 0 0
178 1 21.687354221930363 2.890655456595383 7.9953905524314965 0 0 0
181 1 23.119853579008407 1.3724805006614758 6.752476804458691 0 0 0
179 1 24.51339182718999 -0.004990636392342309 8.042100283061679 0 0 0
183 1 25.849346124179764 1.3443910628289832 9.439040403488171 0 0 0
186 1 27.291018397879846 2.8738344205747577 8.085764081979203 0 0 0
189 1 28.49603410629895 1.4565212634633535 6.7051904646044 0 0 0
191 1 31.331516477921202 1.363962784962167 9.472795973796094 0 0 0
150 1 1.3303103464735264 4.12448665159133 9.415352670180509 0 0 0
195 1 2.838540415430128 5.358447457894237 8.217777658457324 0 0 0
152 1 4.092999203657523 3.920647788808855 6.8219945105357835 0 0 0
158 1 6.757628997983782 3.9265458178240658 9.57845876925551 0 0 0
203 1 8.060538993106782 5.254188073738617 8.246105147436358 0 0 0
160 1 9.44665202658716 3.990468913319675 6.794559394511432 0 0 0
166 1 12.212195024825755 4.045942612686737 9.566439270145343 0 0 0
211 1 13.575369425366883 5.422883091466392 8.206641673268553 0 0 0
168 1 14.954913773066501 4.074307389137148 6.851108422494436 0 0 0
174 1 17.69567206028932 4.187964409378638 9.54820401308612 0 0 0
176 1 20.224357586264002 4.289410024743916 6.792030351229972 0 0 0
219 1 18.986268261569855 5.604168407442933 8.195403194539246 0 0 0
182 1 23.106820044431213 4.106497344718173 9.427801159969363 0 0 0
184 1 25.804560611544932 4.2405274407441045 6.74020928389039 0 0 0
227 1 24.432384807468136 5.453835559506265 8.147410171367003 0 0 0
190 1 28.551605135876752 4.09926484058044 9.489127932824891 0 0 0
192 1 31.309725503378345 4.007349729943812 6.710499854095479 0 0 0
235 1 30.007789046269448 5.395578418316653 8.127382580691503 0 0 0
194 1 0.06203098368042996 8.029803383440408 8.118535529109172 0 0 0
197 1 1.5296610320485682 6.657464517350635 6.780437646021454 0 0 0
198 1 1.2319830280245867 9.43642290810935 9.423484593124774 0 0 0
199 1 4.117137512670168 6.810232801059628 9.512816880510828 0 0 0
200 1 4.065101325129873 9.480602140647209 6.789209336641427 0 0 0
202 1 5.521280751724289 8.237482699794166 8.129437926345835 0 0 0
205 1 6.836864496733075 6.771776893944273 6.890185182960966 0 0 0
206 1 6.773148535746057 9.710151790099529 9.50398027642571 0 0 0
207 1 9.431748242830144 6.723815108794832 9.559015645502038 0 0 0
208 1 9.568023172054465 9.488089210907638 6.869139965419885 0 0 0
210 1 10.769655031071263 8.09015067954314 8.198499824397711 0 0 0
213 1 12.08446015316387 6.69825521657107 6.853691536719679 0 0 0
214 1 12.102509674407871 9.457294596339766 9.578765147546882 0 0 0
215 1 14.888335202830904 6.825272345581564 9.573386531641027 0 0 0
216 1 14.831879049917525 9.405274590403195 6.950058023421273 0 0 0
218 1 16.257168529697292 8.116209569414652 8.189027215521158 0 0 0
221 1 17.68135743093364 6.93682014002659 6.762443857011522 0 0 0
222 1 17.59451936601155 9.482904808242578 9.46785359784972 0 0 0
223 1 20.43555281544902 6.8560550400652245 9.556961775302785 0 0 0
224 1 20.288833222287096 9.480886709774868 6.754334960618393 0 0 0
226 1 21.759589408321556 8.06908394942324 8.042652810717847 0 0 0
229 1 23.088667842604362 6.732679382674841 6.699039532529343 0 0 0
230 1 23.175785158983956 9.417988246989243 9.392309269822553 0 0 0
231 1 25.898458427030004 6.737957145241936 9.475788543376625 0 0 0
232 1 25.88157165870464 9.54763872427441 6.780837396960061 0 0 0
234 1 27.210505920686085 8.165801788667883 8.148516728961717 0 0 0
237 1 28.6462141115205 6.7142576736240525 6.859816325115375 0 0 0
238 1 28.57714137868588 9.452608619285812 9.65088166523952 0 0 0
239 1 31.28510778681552 6.81355368324862 9.53422225955816 0 0 0
240 1 31.342515645301294 9.477427711224307 6.871770013170237 0 0 0
243 1 2.681519406548166 10.787548419802429 8.229875367649003 0 0 0
245 1 1.346888577626635 12.146791256620052 6.806949030482615 0 0 0
247 1 4.107430490966864 12.31175802214718 9.59465198208772 0 0 0
251 1 8.143734004415116 10.984122312124228 8.116118975212798 0 0 0
253 1 6.909436102299778 12.236676369905311 6.6281719496483165 0 0 0
255 1 9.557012129412088 12.304949947877418 9.417585392528196 0 0 0
259 1 13.57670976419646 10.870509058518525 8.213588266022986 0 0 0
261 1 12.251161193697323 12.27744028796919 6.806843250962622 0 0 0
263 1 14.907536870017784 12.22903373410285 9.55323731538945 0 0 0
269 1 17.579499664885113 12.216565832157212 6.744966499011099 0 0 0
267 1 18.980077557373438 10.815766877584261 8.081364401518506 0 0 0
271 1 20.34273049728677 12.22265484307282 9.57291798239527 0 0 0
277 1 23.082591880829654 12.21103721637842 6.766558757101072 0 0 0
275 1 24.483309686383915 10.979403341546663 8.170629234538879 0 0 0
279 1 25.980366955884612 12.277329337270375 9.444436645977193 0 0 0
285 1 28.635385466967765 12.169523390688703 6.767141083874861 0 0 0
283 1 29.95597376239005 10.823919749412077 8.304954687670353 0 0 0
287 1 31.32694843442208 12.277869995983218 9.629960011813786 0 0 0
1011 1 2.6746925590874024 16.181527618591566 8.143309495051428 0 0 0
242 1 -0.023019043453247984 13.495958327664896 8.131755962299145 0 0 0
246 1 1.2510929387684988 14.880142293539588 9.485343024299258 0 0 0
248 1 4.210027868312689 14.946127219616848 6.836851779301914 0 0 0
250 1 5.532950225164685 13.479919557482617 8.165609291900589 0 0 0
254 1 6.769836112766195 14.914907381446724 9.572159171254425 0 0 0
256 1 9.456287260083267 14.939145739348138 6.8164885855022375 0 0 0
258 1 10.833013905854735 13.66378048386534 8.145999777145576 0 0 0
548 1 13.518001909712554 13.602861131122959 16.242364980423083 0 0 0
262 1 12.13476550855131 15.008571091767655 9.563066943897768 0 0 0
264 1 14.828905886680474 14.984692242362533 6.8465565889984425 0 0 0
266 1 16.153088335624147 13.581653726232888 8.136574245314424 0 0 0
270 1 17.467220351159373 14.858929974904148 9.54566620090359 0 0 0
1035 1 18.978319387921694 16.134902589024648 8.172867620813165 0 0 0
272 1 20.38053868248705 14.802150657838448 6.85233061508073 0 0 0
274 1 21.76752908393874 13.479608480237296 8.118350813287208 0 0 0
278 1 23.159688896941255 14.85783216247642 9.432608963220305 0 0 0
406 1 12.090098729613029 14.95139995147642 14.812890736204723 0 0 0
280 1 25.8380463854355 15.026171916641578 6.780342889526629 0 0 0
282 1 27.280577248396064 13.736921130344895 8.098674915408258 0 0 0
286 1 28.61305672538507 14.949399620099955 9.498997435943279 0 0 0
402 1 10.878873299917247 13.402456485853723 13.45585222688333 0 0 0
288 1 31.31995317920688 14.902942072406423 6.842246603591993 0 0 0
292 1 2.5707370322616994 2.662174871637002 10.83308487582712 0 0 0
293 1 1.2224954261506114 1.2352370107020179 12.165790287627841 0 0 0
398 1 6.834777416843967 14.943801466334685 14.854694934177337 0 0 0
300 1 8.070900306251684 2.5364158598416773 10.868309151386983 0 0 0
301 1 6.9732233139762325 1.215298499360159 12.214226991965516 0 0 0
308 1 13.753180155675487 2.6099439196514322 10.925855518017578 0 0 0
309 1 12.280168784298175 1.2964876760132744 12.304512346083262 0 0 0
317 1 17.85316504523733 1.2241668285358633 12.160646871316997 0 0 0
316 1 19.038611790757994 2.7132047928895746 10.73453273308363 0 0 0
321 1 21.831010707741996 0.1295726516414974 10.753685722510577 0 0 0
325 1 23.14350080456803 1.3876455653677489 12.210022522423234 0 0 0
324 1 24.501499254975673 2.7346957875070386 10.79006753888768 0 0 0
333 1 28.496135987257663 1.2592382431371438 12.095141034972654 0 0 0
332 1 29.87336654388888 2.710225012215302 10.814293857480743 0 0 0
337 1 -0.0083328750268946 5.448420890411111 10.850986872055458 0 0 0
296 1 4.037777949076257 3.8463423853670498 12.228638685239865 0 0 0
345 1 5.359403636464034 5.327986665476201 10.875373578165249 0 0 0
304 1 9.470516920054113 3.902515305504896 12.239452144104945 0 0 0
353 1 10.792799797093323 5.273563930502111 10.984655177668593 0 0 0
312 1 15.02191014899987 4.017970732447497 12.34440442560603 0 0 0
361 1 16.335444025216137 5.462817855175312 10.968952734361556 0 0 0
320 1 20.28102906043286 4.243117901219184 12.181095491839462 0 0 0
369 1 21.78834389462229 5.536879728839924 10.902960177410995 0 0 0
328 1 25.81191809877029 4.003097253985107 12.193932068790565 0 0 0
377 1 27.193461081631472 5.411769302305021 10.933831456457604 0 0 0
336 1 31.23638855981835 4.099338441391343 12.17369716524851 0 0 0
340 1 2.6161502410148336 8.17647942480791 10.856668805976899 0 0 0
341 1 1.3403518742109894 6.765212062719046 12.27347096836634 0 0 0
344 1 3.995903687266718 9.532070765421281 12.30079162341174 0 0 0
348 1 8.164573111533862 8.170689209837903 10.906821277836743 0 0 0
349 1 6.756738442760792 6.737725783567094 12.199380191534932 0 0 0
352 1 9.50274353410207 9.525470632499301 12.274389420911094 0 0 0
356 1 13.594253815076758 8.184214813609229 10.943436831677037 0 0 0
357 1 12.246442264012167 6.66267245359931 12.204530576980924 0 0 0
360 1 14.970207689527086 9.5499625259079 12.307835382274178 0 0 0
365 1 17.72632583028871 6.713634160948315 12.215086029405835 0 0 0
364 1 19.01683269035623 8.224548861188085 10.766332936174171 0 0 0
368 1 20.28626509210377 9.431083408271544 12.249020374655702 0 0 0
373 1 23.154745574127613 6.780544043453056 12.338024283111393 0 0 0
372 1 24.465942724013274 8.11789112590411 10.788381565991761 0 0 0
376 1 25.79175581773263 9.530940267919224 12.190834070090915 0 0 0
381 1 28.566796810194113 6.772938679969572 12.276332241281633 0 0 0
380 1 29.933748729021726 8.115146036730303 10.936918238829616 0 0 0
384 1 31.29433511780983 9.60946366516606 12.211579419786172 0 0 0
389 1 1.320848863944606 12.224166755096656 12.246270249980846 0 0 0
393 1 5.452464032941009 10.894920372613104 10.971253717185395 0 0 0
397 1 6.726304842028953 12.266781580646827 12.290542965619103 0 0 0
401 1 10.761165421984836 10.895829578959505 10.846783215556483 0 0 0
405 1 12.212428422203267 12.063624483062505 12.203328126586065 0 0 0
409 1 16.2800410970137 10.752949584925327 10.827810944711803 0 0 0
413 1 17.6165442152794 12.188360759559211 12.293165134425548 0 0 0
417 1 21.638465907530772 10.789353573884794 10.870109643482008 0 0 0
421 1 23.140806803541363 12.096152074705204 12.21245155210018 0 0 0
425 1 27.24598625745846 10.89023145272513 10.849535831322562 0 0 0
429 1 28.55770150911374 12.261156855429853 12.188672933286432 0 0 0
385 1 0.08892534016338516 10.884569649586423 10.845042618826247 0 0 0
388 1 2.602383369813206 13.572360227185769 10.851916862910281 0 0 0
392 1 4.015982297625335 14.981611513849279 12.25964134702212 0 0 0
396 1 8.160686306606376 13.541748203504733 10.883405491768698 0 0 0
400 1 9.504754954057514 14.996099856575057 12.20546673816089 0 0 0
404 1 13.597655909289031 13.628767979458384 10.821600338336935 0 0 0
1177 1 16.191031463567423 16.223921800839637 10.89461786261074 0 0 0
408 1 14.863169661465514 14.900512763654964 12.369629358924545 0 0 0
412 1 18.936702965725896 13.533230699977741 10.880588849719285 0 0 0
416 1 20.363706211146333 14.837079934879178 12.231712763998049 0 0 0
1185 1 21.717197910377198 16.273769481532756 10.775028088590945 0 0 0
420 1 24.489582937556158 13.44620490913471 10.87470386763922 0 0 0
424 1 25.832821634651953 15.024317736071808 12.132465247126445 0 0 0
428 1 29.93054774199397 13.583970568859726 10.895266790384959 0 0 0
432 1 31.166666386722436 14.907086215599481 12.319901836319804 0 0 0
436 1 2.6390229489199393 2.6337930099428766 16.190625076627438 0 0 0
295 1 3.948464501141967 1.2376389351832455 14.892701061335899 0 0 0
298 1 5.4786170465132376 2.5538758374483392 13.564661730251952 0 0 0
394 1 5.290840983596075 13.64986468317181 13.609434494829824 0 0 0
145 1 32.54963178992738 -0.008452677918846518 5.46968545685936 -1 0 0
303 1 9.521309771287088 1.2669725813163675 15.003993870447538 0 0 0
306 1 10.856132274484818 2.6392326341115298 13.648841397758078 0 0 0
311 1 15.042777407295029 1.2926474643327552 14.91188469677619 0 0 0
314 1 16.458166387721796 2.5791217521868366 13.605302730640553 0 0 0
319 1 20.416481774728517 1.2718654077017801 14.967028556912368 0 0 0
322 1 21.754603138296474 2.8095001758769826 13.513557854224063 0 0 0
323 1 24.486085993826908 0.010538797799605655 13.646493048697279 0 0 0
327 1 25.89681102067952 1.3165539372399988 14.860640938871668 0 0 0
468 1 24.59986422579261 2.660049706646393 16.17067599570557 0 0 0
330 1 27.16560120861665 2.7506155638683305 13.434639352727222 0 0 0
290 1 -0.015142968457830364 2.6884553465747967 13.588486962144106 0 0 0
331 1 29.820874778756707 0.06183539085448047 13.541246053782949 0 0 0
335 1 31.254044891325215 1.3321898841921687 14.918395633874434 0 0 0
386 1 0.045223674681751765 13.608082930535161 13.528955068536742 0 0 0
294 1 1.1704037943547445 3.9783731999516982 15.01230833833192 0 0 0
339 1 2.6818039664933955 5.29532339450383 13.612528649500257 0 0 0
177 1 21.679528668567887 0.0967535902055019 5.350715473703386 0 0 0
302 1 6.90811328648969 3.999562331512295 14.909250312138088 0 0 0
347 1 8.15108998722716 5.434738784129335 13.486489435889032 0 0 0
43 1 29.899046633469833 0.06318788880189885 2.8214077559997337 0 0 0
310 1 12.216387826481242 4.0241661258624495 14.99165419451042 0 0 0
355 1 13.635279297483072 5.340262312515699 13.671022118107171 0 0 0
318 1 17.664523415596523 4.004874376752108 14.970493112999888 0 0 0
363 1 19.04677380218928 5.389695766162485 13.685914131287097 0 0 0
326 1 23.139156484438914 4.038846502282482 14.926081039741785 0 0 0
19 1 13.6102012061336 -0.017856545074955932 2.6487884110284248 0 0 0
371 1 24.56576793143783 5.360934274451814 13.618344297482167 0 0 0
334 1 28.60318825863209 4.043176032892978 14.829672303429803 0 0 0
521 1 27.3825594204877 5.351178770345565 16.185357440601457 0 0 0
379 1 29.932423921191052 5.518167608863699 13.583627377251158 0 0 0
342 1 1.3157336104338873 9.491660928962911 14.903556770175326 0 0 0
343 1 4.143230852002276 6.666103006980912 14.97819842872099 0 0 0
346 1 5.407779133897497 8.082551684370237 13.58750291261439 0 0 0
350 1 6.769894023860711 9.439287777873293 14.90802569151509 0 0 0
492 1 8.068592778914585 8.103307240535454 16.22222618981538 0 0 0
351 1 9.517986487114412 6.815591891221417 14.854377806905623 0 0 0
354 1 10.961844238253738 8.050455864065649 13.460472664249995 0 0 0
358 1 12.171533678790516 9.471602237936661 14.980216392964776 0 0 0
359 1 15.011854266949241 6.920018768868651 14.811332884564747 0 0 0
362 1 16.386020499491597 8.155927476074794 13.565677490200489 0 0 0
366 1 17.689086659256155 9.471442396085067 15.074051144431113 0 0 0
367 1 20.376031619012103 6.727137780903183 14.976323133211382 0 0 0
508 1 18.98258235990832 8.136109075938526 16.26202292240387 0 0 0
370 1 21.74559334533277 8.128201217881118 13.662757810258563 0 0 0
374 1 23.118592187748614 9.476579398203057 15.081233130169348 0 0 0
375 1 25.948457159050438 6.727314842650535 14.941403103899328 0 0 0
17 1 10.85275371436855 0.05494334459289263 0.08401822735132727 0 0 0
378 1 27.199078547750368 8.209752109871836 13.571538444095651 0 0 0
382 1 28.58046935892921 9.56022336848567 14.95380103134481 0 0 0
338 1 32.59583018544771 8.167181834141584 13.568784406273819 -1 0 0
383 1 31.30628211326813 6.795696974296841 14.998764226846626 0 0 0
524 1 29.86514619943082 8.160035511777314 16.280895675653618 0 0 0
387 1 2.671118081210543 10.89301313228308 13.584764468502177 0 0 0
391 1 3.985563678325085 12.250941431530764 15.096908539433684 0 0 0
11 1 8.172809504167818 0.00989091112159457 2.6713119044430718 0 0 0
395 1 8.169284894651058 10.821444652431682 13.615966732758936 0 0 0
399 1 9.584803585985398 12.213326936877293 15.024209934018533 0 0 0
403 1 13.572757368581373 10.811361887619137 13.574989755761282 0 0 0
407 1 14.858563825892181 12.183211186353542 14.93539499619995 0 0 0
553 1 16.202886553948655 10.819975880260381 16.282104199338235 0 0 0
415 1 20.4380623557353 12.1438838661999 14.894806098019023 0 0 0
411 1 18.88383458698561 10.84871119480952 13.606821389988283 0 0 0
423 1 25.786488769807598 12.224851659785465 14.967891700020207 0 0 0
419 1 24.396158758009612 10.826947069926032 13.685628430588746 0 0 0
431 1 31.350726131133527 12.300159234637468 14.895611795894004 0 0 0
427 1 29.867634361379654 10.902191691320763 13.593756014575105 0 0 0
529 1 32.589640677801206 10.813283987242723 16.244734097058867 -1 0 0
390 1 1.3319971579076741 14.984388280226472 14.927299412165814 0 0 0
883 1 13.55920231802171 16.265269729575984 2.723003780347563 0 0 0
899 1 24.459712696723475 16.269046306707843 2.6948206173889475 0 0 0
1 1 -0.02284799300807321 0.11891396412487154 0.024849103933481404 0 0 0
905 1 27.05836036182257 16.27360291821455 -0.00040039197322983 0 0 0
452 1 13.589162928784745 2.5899661950348567 16.228697604499327 0 0 0
476 1 29.931993607848014 2.652334781851521 16.265477004647405 0 0 0
489 1 5.4403790535146825 5.314743755422827 16.27423566923581 0 0 0
505 1 16.156854502078723 5.352478106575637 16.23627113465847 0 0 0
484 1 2.7300368345409023 8.001697269849545 16.231239554893328 0 0 0
500 1 13.61814814709888 8.09452974843568 16.20418388590964 0 0 0
569 1 27.18206848661395 10.861346724882672 16.281823425097826 0 0 0
556 1 19.00742261533453 13.503712844239335 16.23039075648733 0 0 0
116 1 13.432902497176277 13.66231254373016 0.10035126203718647 0 0 0
108 1 8.1531861813676 13.652912483220785 -0.004827188290263962 0 0 0
25 1 16.209925816613296 0.029822842505901104 -0.005377679122410939 0 0 0
73 1 16.355965242443418 5.480127023625019 -0.01607257482564961 0 0 0
49 1 0.06345810761150261 5.423747915385607 -0.005774600665105822 0 0 0
92 1 29.795931802678716 8.127840251333406 0.0015860027066310067 0 0 0
113 1 10.816222389965917 11.076097021437567 0.08462358796862901 0 0 0
129 1 21.58743125377477 10.872574742324712 0.026477072349436526 0 0 0
434 1 32.595570511436456 2.6464039175753302 19.086609342469934 -1 0 0
437 1 1.2951395452316912 1.331262136771025 17.726473994624207 0 0 0
441 1 5.4124604157265 -0.02201554399503912 16.360451696543493 0 0 0
442 1 5.378143105269019 2.5872979153246103 18.91932196695923 0 0 0
140 1 29.91113670232279 13.618739338594393 32.53885689048176 0 0 -1