LAMMPS data file via write_data, version 19 Nov 2024, timestep = 60000, units = metal

1728 atoms
1 atom types

-0.013204128184153063 32.593204128183345 xlo xhi
-0.013204128184153063 32.593204128183345 ylo yhi
-0.013204128184153063 32.593204128183345 zlo zhi

Atom Type Labels

1 Si

Masses

1 28.0855

Atoms # atomic

2 1 32.581236700206745 2.676278286470345 2.750890632300489 -1 0 0
3 1 2.6038859413953213 32.5789331038347 2.7061308616641377 0 -1 0
1148 1 29.84052065015669 29.865673250092453 16.271512858337065 0 0 0
5 1 1.3080078074046977 1.3284520835782114 1.2911875915796636 0 0 0
10 1 5.348726090056791 2.713201779424045 2.655537657434206 0 0 0
13 1 6.782809590127934 1.37785620129337 1.3958728308536021 0 0 0
18 1 10.79431246419238 2.7321811301540997 2.8019798884699862 0 0 0
19 1 13.527009672089426 -0.0001533472618470617 2.7365191370856 0 0 0
858 1 27.112992083558183 30.03065033934138 13.615433294001422 0 0 0
21 1 12.180842375069156 1.3095450316608936 1.3430649079508128 0 0 0
26 1 16.337135432083148 2.7156964353608477 2.709651010094107 0 0 0
29 1 17.66069624631347 1.4057162864403074 1.2762567039709434 0 0 0
862 1 28.533447947601125 31.2704325462123 14.950734283647835 0 0 0
34 1 21.70281018203981 2.7156984592257225 2.7219635407080847 0 0 0
37 1 23.147856151870634 1.2883213277808987 1.4566089553025439 0 0 0
42 1 27.172328964036094 2.6856296417427274 2.7406343624499883 0 0 0
45 1 28.45956650193704 1.3721794332414035 1.3764045676883858 0 0 0
43 1 29.838507815143668 32.573418490570546 2.71509432721928 0 -1 0
897 1 21.70103069655027 0.005637436497373471 16.216672958831793 0 0 0
51 1 2.716085981657673 5.481726756265495 2.6679822190790086 0 0 0
8 1 3.982185095380073 4.003802616457682 1.295091259597964 0 0 0
59 1 8.059113775078346 5.499088631763354 2.7041134349290794 0 0 0
16 1 9.461969300695094 4.146848919234077 1.3806736204797265 0 0 0
65 1 10.882204174210218 5.41205975437978 0.07167392083429851 0 0 0
67 1 13.585397419064044 5.333207589007908 2.6880441880859514 0 0 0
24 1 14.95975516256396 4.102959102561271 1.279050322493864 0 0 0
850 1 21.665662781034477 29.936552163232353 13.605561540266741 0 0 0
32 1 20.35424366212421 4.042370938458251 1.3597375236834917 0 0 0
75 1 18.9349130622307 5.410136877050325 2.7961164721531784 0 0 0
40 1 25.837385468666913 4.04349212675444 1.3684272762735687 0 0 0
83 1 24.43121374547342 5.443561367835625 2.681747793278596 0 0 0
89 1 27.152168165770046 5.431077350079676 0.003218121088908828 0 0 0
48 1 31.305043668175852 4.076854749935273 1.405838526218447 0 0 0
91 1 29.974187332908077 5.492593034885105 2.6770226107626973 0 0 0
854 1 23.103933126738898 31.303372017039834 14.998557286897316 0 0 0
53 1 1.3128919277025617 6.852081210079755 1.3033315619521806 0 0 0
58 1 5.429260412774111 8.195633547978836 2.6839004389311096 0 0 0
61 1 6.80154511922412 6.845124888618022 1.272915394248529 0 0 0
66 1 10.912422506917364 8.174696040697837 2.6915150569501454 0 0 0
1132 1 18.94392854378352 29.878879188206025 16.24786656904153 0 0 0
69 1 12.24978829447365 6.738674999003808 1.3276677608074616 0 0 0
74 1 16.18346733883731 8.2063045144266 2.710205557125929 0 0 0
77 1 17.647131030261992 6.869469367981457 1.4025909042384561 0 0 0
82 1 21.746760006570728 8.103307693062018 2.7788665900122624 0 0 0
85 1 23.075221090066066 6.798420402732646 1.3110771941625035 0 0 0
603 1 18.989610395632734 32.586537594436265 13.608209220250751 0 -1 0
90 1 27.143106496424576 8.185778806645555 2.6869303413401573 0 0 0
93 1 28.569646680272733 6.840416264483262 1.3606433973162328 0 0 0
50 1 0.03082544308792734 8.20605686406845 2.7285286140891465 0 0 0
99 1 2.6995183496405275 10.91904522968435 2.748006381087559 0 0 0
56 1 4.079168454528634 9.658936565342081 1.345696241851151 0 0 0
107 1 8.162951954542148 10.862901820122289 2.6951202326103623 0 0 0
64 1 9.569756194204727 9.490629306683337 1.3417550464051016 0 0 0
842 1 16.377768285553802 29.92479590380434 13.539210924515713 0 0 0
115 1 13.507141838436993 10.908452333679213 2.7859445940951217 0 0 0
72 1 14.814108360690833 9.56492029026692 1.3580718390606143 0 0 0
121 1 16.303756696110803 10.781305771653079 -0.00410272362428803 0 0 0
80 1 20.48532695602195 9.52066816357686 1.4194903181128349 0 0 0
123 1 19.05297143040482 10.850112631679334 2.766964915220709 0 0 0
88 1 25.786589503997348 9.554884605097875 1.3395214468984808 0 0 0
131 1 24.3744931153848 10.909457265359833 2.658298031429928 0 0 0
846 1 17.652493017454585 31.32501104831827 14.980108625251766 0 0 0
96 1 31.2128024207098 9.446177744536199 1.402826897494773 0 0 0
139 1 29.914632436400627 10.883339878088222 2.7717702156415505 0 0 0
100 1 2.707207451699642 13.551100271516372 0.007534614237216747 0 0 0
101 1 1.3349443955927105 12.269365182059202 1.399657758488589 0 0 0
106 1 5.346299620692196 13.637836078217646 2.741462194915901 0 0 0
109 1 6.750344984047867 12.34435500638507 1.2978598632538791 0 0 0
114 1 10.882199360043357 13.59904029241928 2.706521022249296 0 0 0
838 1 12.19901762869744 31.29036618384496 14.79143485047618 0 0 0
117 1 12.325609518222107 12.256764854748955 1.3549964770044474 0 0 0
122 1 16.308495579922784 13.568719537307016 2.670362134950364 0 0 0
125 1 17.690729380604505 12.109037129897663 1.3607795739940403 0 0 0
130 1 21.607161430980447 13.528812014166464 2.634907385197493 0 0 0
133 1 22.998541841099044 12.282764067612632 1.2835168029994763 0 0 0
138 1 27.203986960600563 13.625164554187984 2.6535121962552655 0 0 0
141 1 28.58549208702931 12.196317647536759 1.4108500899804353 0 0 0
98 1 32.54919470602455 13.481623836689462 2.78696182432791 -1 0 0
834 1 10.781471109878822 29.847968864154346 13.520847334186996 0 0 0
147 1 2.672053514018152 16.319366601545873 2.717362297869535 0 0 0
149 1 1.3027223117446003 17.689334941055677 1.3357690321211324 0 0 0
104 1 4.070024291272967 14.917610259104697 1.277156100516622 0 0 0
155 1 8.109242766803643 16.34316527046406 2.7496098805520104 0 0 0
157 1 6.748588329161633 17.59473598781905 1.3412995338472788 0 0 0
112 1 9.504738562125851 14.967840935860057 1.375524020887844 0 0 0
830 1 6.925750685969108 31.35188522026709 14.982112830871635 0 0 0
163 1 13.627724811652051 16.24077637809595 2.634273894679617 0 0 0
165 1 12.200672388369146 17.600899296333804 1.1920270197094527 0 0 0
120 1 14.957783541336775 14.853893014439416 1.259319171190845 0 0 0
173 1 17.61700029679153 17.614394128347723 1.4537758260749962 0 0 0
128 1 20.262254993498697 14.984463624498598 1.3932954222922704 0 0 0
171 1 19.003485203320935 16.331392531443285 2.81347644934013 0 0 0
177 1 21.66320724182911 16.31079005183825 0.04192847291092171 0 0 0
181 1 23.143356615760517 17.58509297128684 1.3143177041212313 0 0 0
136 1 25.826909574698735 14.888538064938084 1.2597171210880513 0 0 0
179 1 24.532403242220486 16.227223088394975 2.6955591163454073 0 0 0
826 1 5.4431454254836975 29.938706674741695 13.607025079088379 0 0 0
189 1 28.545583206667686 17.66258944291594 1.2705191027090426 0 0 0
144 1 31.26210373238222 14.904781387993406 1.2966618359581643 0 0 0
187 1 29.828768972860075 16.257235712421533 2.63809665280397 0 0 0
152 1 4.129249503356232 20.36308620187644 1.3706287893524234 0 0 0
154 1 5.38780070997067 18.989234875997195 2.692651791199746 0 0 0
160 1 9.51217983772298 20.315556462267747 1.3732706026421384 0 0 0
162 1 10.936140141561413 18.969268592757416 2.6475188790438815 0 0 0
1108 1 2.6766760075852125 29.884968459016342 16.276945771611462 0 0 0
168 1 14.9549285042202 20.343634015023703 1.3308676483385187 0 0 0
170 1 16.29745312136407 19.044331560202146 2.7566351323080744 0 0 0
172 1 18.930906323948296 18.932643889134532 0.03666209474276588 0 0 0
176 1 20.33175104876953 20.31351093484831 1.2878584425302504 0 0 0
178 1 21.798157103703925 18.938655174321077 2.6564105750237283 0 0 0
180 1 24.426619588058696 19.0129378957908 -0.010208848365972979 0 0 0
184 1 25.78694902433779 20.37044588439015 1.2853660202179058 0 0 0
186 1 27.224244145785466 18.964190496518444 2.658604503196541 0 0 0
146 1 -0.009488933833317503 18.995617311220858 2.669129778796809 0 0 0
192 1 31.321927541423214 20.428859109942504 1.3845214074323084 0 0 0
195 1 2.7123274833058724 21.758440664880624 2.619034880909529 0 0 0
197 1 1.2424020747610842 23.09102573774349 1.3543717086149414 0 0 0
818 1 32.55521195133212 29.91425204691938 13.67625915000134 -1 0 0
203 1 8.057593184788677 21.71844659024054 2.690714198412158 0 0 0
205 1 6.736979976734669 23.171295352239355 1.3470366002266836 0 0 0
211 1 13.579605661278322 21.66916820544794 2.760063210908653 0 0 0
213 1 12.24818809153004 23.073766958147374 1.30594148716259 0 0 0
217 1 16.26974056426992 21.744316290214684 -0.0035410030120132 0 0 0
221 1 17.576075693315275 23.08080614719223 1.2577521069070232 0 0 0
219 1 18.968209575061255 21.725982024830458 2.61801815114202 0 0 0
822 1 1.315520680931119 31.24478295690166 15.00958234175111 0 0 0
229 1 23.020160953153283 23.09831388412846 1.3148206003114404 0 0 0
227 1 24.445320561732046 21.692471012041263 2.6025705486806396 0 0 0
859 1 29.799865706771524 27.13469684613708 13.606440380406367 0 0 0
237 1 28.592418375346526 23.134486076191337 1.2818163417393762 0 0 0
235 1 29.932578191132176 21.83573121368992 2.7102356363045095 0 0 0
194 1 32.56237649050828 24.453845757015014 2.7945671706362405 -1 0 0
200 1 3.9998390156781736 25.813912167187265 1.3158414643527494 0 0 0
202 1 5.341635916606957 24.484515331737537 2.696721124491717 0 0 0
204 1 8.140957427188312 24.403218414652645 -0.005652933921201101 0 0 0
208 1 9.510343008892491 25.804726384319558 1.401946204890919 0 0 0
210 1 10.84682990886174 24.333351499394706 2.697241580934584 0 0 0
216 1 15.04307804277285 25.74512617515672 1.373948949581478 0 0 0
218 1 16.35971767247578 24.342351780735484 2.766793151617985 0 0 0
220 1 19.01792926664081 24.517085364479836 0.059351863808699015 0 0 0
224 1 20.390816935207077 25.8959113069972 1.3251820125921185 0 0 0
226 1 21.708759533035582 24.506693645516116 2.7099607255371905 0 0 0
863 1 31.20665940819604 28.450656307481164 14.988169698414206 0 0 0
232 1 25.856894521867332 25.846338926933992 1.2952058266471775 0 0 0
234 1 27.21831457269084 24.435388310866838 2.697333485423239 0 0 0
240 1 31.246888486121048 25.798641304677595 1.3640022243391206 0 0 0
243 1 2.6779407765681027 27.183672821642926 2.6491882946430603 0 0 0
245 1 1.231821643861531 28.45019436676185 1.2900715861778085 0 0 0
251 1 8.103729293724072 27.188092798165254 2.707445417228805 0 0 0
253 1 6.668881922111446 28.49933708462249 1.4147240054223453 0 0 0
257 1 10.795140434416655 27.172819230053964 -0.004409587012814374 0 0 0
259 1 13.64121464803641 27.10885441769163 2.738386125723464 0 0 0
261 1 12.257890765947657 28.468477522131085 1.3249868509517213 0 0 0
269 1 17.630507920175994 28.538696546660404 1.3353460728991278 0 0 0
267 1 18.99205241776715 27.21190456348095 2.6604944197416738 0 0 0
851 1 24.315925226448634 27.297495767637855 13.59668436386707 0 0 0
277 1 23.17855160421601 28.460055310228146 1.340569862763364 0 0 0
275 1 24.52803348584905 27.157211557276472 2.749404465214835 0 0 0
285 1 28.512182793102927 28.588094571495926 1.1724612340713738 0 0 0
855 1 25.743051011088053 28.667774999771385 14.949061984379307 0 0 0
283 1 29.84337084411345 27.197788231572705 2.5854880190266476 0 0 0
843 1 19.10556736752295 27.13216238396238 13.63516497669148 0 0 0
248 1 4.031817718589425 31.171668687225456 1.3744231613084676 0 0 0
250 1 5.330809731942346 29.807632031635272 2.7782237745138545 0 0 0
11 1 8.09035151145615 32.50504367046776 2.7104482729913806 0 -1 0
252 1 8.134874681005092 29.814141778913633 -0.0060024637201092305 0 0 0
847 1 20.389640224567273 28.511561125683034 14.982863439934436 0 0 0
256 1 9.417157482183587 31.26470376667095 1.2910445718240078 0 0 0
258 1 10.878799049260985 29.90058681534602 2.54951676444767 0 0 0
264 1 14.932976587718793 31.273934477057963 1.4755412011526226 0 0 0
266 1 16.343399266817993 29.884881621584253 2.7814969086597587 0 0 0
27 1 19.020995160527704 -0.000739992224289665 2.6454230913642767 0 0 0
272 1 20.38923407146492 31.147407079438576 1.404402413723186 0 0 0
274 1 21.810849495440397 29.774403655205408 2.6848418898884123 0 0 0
35 1 24.431884154935716 32.56270981176525 2.7550590669853166 0 -1 0
280 1 25.772927446571202 31.239363456740247 1.3044791389909136 0 0 0
1129 1 16.30597773123219 27.190481408638234 16.18000400268597 0 0 0
282 1 27.16299605986568 29.878292831538534 2.583297660195064 0 0 0
1 1 32.48462083651941 0.028263176981845106 0.011640359503372732 -1 0 0
242 1 32.512346741820885 29.842038828808775 2.634665347124691 -1 0 0
288 1 31.1351773374893 31.186010276054027 1.3007483207776989 0 0 0
292 1 2.6826902630649347 2.759740747389923 5.374753174515669 0 0 0
7 1 4.068750128835144 1.2823899930267877 4.01750482943649 0 0 0
300 1 8.109258371587782 2.6296119679389593 5.362733451704294 0 0 0
15 1 9.464192675530564 1.2907205536275317 4.019160315651648 0 0 0
308 1 13.662482114548386 2.6531753829468463 5.485405257059263 0 0 0
23 1 14.984391838728493 1.353065877986594 4.052344600226286 0 0 0
31 1 20.38952754290912 1.330271685936774 4.074620233944246 0 0 0
316 1 19.073012226828467 2.7524874723984762 5.356315860709189 0 0 0
39 1 25.875993725477016 1.2781868274174017 4.048572832666908 0 0 0
324 1 24.41673422968103 2.713540934798748 5.2637097294058375 0 0 0
329 1 27.154716285956418 32.545115670860596 5.407275122677458 0 -1 0
289 1 32.517092881682245 32.575161614495926 5.48210378680408 -1 -1 0
47 1 31.25869857596465 1.3068361031606959 4.054228763849974 0 0 0
332 1 29.96879039253494 2.730102945448494 5.40373728483708 0 0 0
6 1 1.3716103339855552 4.175170639280147 4.0440189613143485 0 0 0
337 1 -0.001968298949679503 5.528209769599475 5.387638527899683 0 0 0
345 1 5.337010307280068 5.3832004804559235 5.368617238916069 0 0 0
14 1 6.692295056012293 4.067162402316475 3.9243761566359923 0 0 0
353 1 10.866408795301037 5.3869127108931085 5.438591692800767 0 0 0
22 1 12.306500765174738 4.004190591853799 4.140342310852429 0 0 0
30 1 17.595131946659567 4.0599884247975915 4.113810576215347 0 0 0
361 1 16.289104208094457 5.376439362651639 5.4431384215016285 0 0 0
38 1 23.02496413990191 4.107679073781939 4.014383462740397 0 0 0
369 1 21.87297205691573 5.480188636996055 5.458091598973664 0 0 0
46 1 28.606499345101117 4.082501480178334 3.9912080076803376 0 0 0
377 1 27.194530385681805 5.4034692356155 5.376599934737545 0 0 0
340 1 2.733747477408296 8.192440867352676 5.383299302709585 0 0 0
55 1 4.054933851839422 6.856921498368233 4.012391693160354 0 0 0
348 1 8.098433450979535 8.099693884850021 5.385743023920108 0 0 0
63 1 9.57691494906664 6.785037385396793 4.087655296017436 0 0 0
356 1 13.552503146837365 8.055650154678418 5.47529837494226 0 0 0
71 1 14.967372911080291 6.733574228607686 4.053768934125891 0 0 0
79 1 20.464255296001983 6.7622717873016525 4.132377296988463 0 0 0
364 1 19.040148119523366 8.136131542866092 5.388395938548686 0 0 0
87 1 25.915361838745255 6.806872752628809 4.064159827331205 0 0 0
372 1 24.526620248172776 8.103046097416282 5.4133976097647745 0 0 0
95 1 31.199802582431357 6.883608445902545 4.001112437853523 0 0 0
380 1 29.816354898672873 8.156675082473747 5.360848959507646 0 0 0
54 1 1.3754771342376633 9.567362343095215 4.0492112739395845 0 0 0
385 1 0.07462442345807294 10.841029892407285 5.426368684320212 0 0 0
393 1 5.431515630244517 10.826069813065022 5.479811096631843 0 0 0
62 1 6.762453806571481 9.511050374238824 4.010525321540121 0 0 0
401 1 10.791947242572963 10.83554170331252 5.477898381324246 0 0 0
70 1 12.185928124272156 9.502869465490843 4.094869370768738 0 0 0
78 1 17.60994631120321 9.53338680818194 4.094778431306852 0 0 0
409 1 16.29489401144291 10.839293777302618 5.510687648760712 0 0 0
86 1 23.142198903854307 9.478262917523669 4.056045872440881 0 0 0
417 1 21.76109697306776 10.80020892352746 5.3937196009697415 0 0 0
94 1 28.46505948234031 9.57956343516189 4.038229882840551 0 0 0
425 1 27.02866074655823 10.937675101926107 5.318970578089459 0 0 0
388 1 2.7894972567870564 13.513327677177166 5.464546271808267 0 0 0
103 1 4.080359092241182 12.191954859877926 4.073055927951741 0 0 0
396 1 8.226043089504081 13.616526730533668 5.432294485347184 0 0 0
111 1 9.518093587514677 12.229920226706323 4.015300527560687 0 0 0
404 1 13.585863485681871 13.504728477713977 5.463169595835417 0 0 0
119 1 14.95290668940841 12.213621135565297 4.116474316766642 0 0 0
127 1 20.37545168492696 12.205803355977084 4.134569654095547 0 0 0
412 1 18.977535843490053 13.497235901076234 5.527996387671326 0 0 0
135 1 25.67950631301009 12.328788675988696 3.954483298408897 0 0 0
420 1 24.322172334354704 13.604147025014822 5.417933469596915 0 0 0
143 1 31.32780520659413 12.165506275170124 4.166478108774276 0 0 0
428 1 29.807680401654604 13.53498134319927 5.41349522515037 0 0 0
102 1 1.324823027897525 14.878035522652148 4.1505042380674295 0 0 0
151 1 4.042289333920899 17.64026003860406 4.077535595017707 0 0 0
441 1 5.4414471368460156 16.29346912980665 5.391708066994038 0 0 0
110 1 6.808876348094183 14.919250435788634 4.078151564265495 0 0 0
159 1 9.53245251375203 17.706892660839532 4.009427600484203 0 0 0
449 1 10.86976476463217 16.268068969397486 5.4248719230291265 0 0 0
118 1 12.287212845947554 14.87896423339385 4.105437220504876 0 0 0
126 1 17.68381120396564 14.887474940207463 4.098238389274083 0 0 0
167 1 14.968696977722532 17.532929255079875 4.055978510250409 0 0 0
457 1 16.254280073236156 16.29159938350551 5.479388468288977 0 0 0
175 1 20.35344852102404 17.706277875091846 4.094621741579192 0 0 0
134 1 22.990736292555166 14.971284064764154 3.988553276242955 0 0 0
465 1 21.67700997793475 16.367213573688083 5.414450394179296 0 0 0
183 1 25.73761790005975 17.708403509883215 4.058580133309225 0 0 0
142 1 28.53231533386517 15.003520916533764 4.032104387814133 0 0 0
473 1 27.061673165529303 16.251859074838773 5.38810361093818 0 0 0
433 1 32.574981974917804 16.29003494343201 5.522381488826321 -1 0 0
191 1 31.2475287175099 17.642413911173048 4.0568036063111155 0 0 0
150 1 1.3428839279742357 20.47495834462476 4.008001380661378 0 0 0
436 1 2.650343992222801 19.024052501376 5.33594322510839 0 0 0
158 1 6.757641121346305 20.417690906344404 4.096296943638442 0 0 0
444 1 8.17071987379193 19.087859431041053 5.472290029134468 0 0 0
166 1 12.22710848318501 20.340234575504077 4.055381910661777 0 0 0
452 1 13.553349267358417 18.917694607119028 5.396722289643996 0 0 0
174 1 17.65767932318414 20.413988899950866 4.08241849857949 0 0 0
460 1 18.964729123521803 19.08697068968764 5.446859251409948 0 0 0
182 1 23.095743500015207 20.41711758092147 4.010221117783656 0 0 0
468 1 24.413108722457608 19.04504071827357 5.440309573231845 0 0 0
190 1 28.554446473823923 20.38071989087867 4.030608505763347 0 0 0
476 1 29.96184992379642 19.03430407584418 5.385623879699464 0 0 0
199 1 4.053230914068504 23.085291643602893 4.008753672348266 0 0 0
489 1 5.3509366191948065 21.73502762975314 5.4277935198866265 0 0 0
207 1 9.441910721139285 23.07209450473781 3.9921100807016896 0 0 0
497 1 10.888409493198195 21.717242378087565 5.406424034963526 0 0 0
215 1 14.939835380662053 23.07530845020321 4.078883304631758 0 0 0
505 1 16.30139670667307 21.70282530823959 5.462094813543155 0 0 0
223 1 20.306715594112006 23.09455147904006 4.042518984279431 0 0 0
513 1 21.701779556625414 21.695877970413903 5.410970684229866 0 0 0
231 1 25.808156978186346 23.094108711755243 4.062365135989509 0 0 0
521 1 27.13988654534559 21.689537756904297 5.394460636286169 0 0 0
481 1 32.55110901230016 21.756370433767227 5.451372490717905 -1 0 0
239 1 31.17497565023065 23.126156289433194 4.157743957259251 0 0 0
198 1 1.3533342664701613 25.826124976392283 4.0854731162138185 0 0 0
484 1 2.782640619253544 24.46966768111513 5.404856676569192 0 0 0
206 1 6.712613299660676 25.924153322209946 4.029893613369485 0 0 0
492 1 8.092893570810224 24.478962898864502 5.420367720869397 0 0 0
214 1 12.288776908306051 25.662318555883274 4.051451278404687 0 0 0
500 1 13.648573826721451 24.42665797764659 5.547165488892361 0 0 0
222 1 17.664982848776923 25.752475888633914 4.05469885523295 0 0 0
508 1 19.02122162741237 24.480981031757505 5.40641091104127 0 0 0
230 1 23.132727722994858 25.77899159379184 4.106498611388595 0 0 0
516 1 24.443249878428286 24.405726877809393 5.482362085840457 0 0 0
238 1 28.512975344394732 25.832646369550442 4.060228455651202 0 0 0
524 1 29.805436908800942 24.502158636408378 5.484201041910012 0 0 0
529 1 0.02177463285177542 27.14955641046334 5.403691704937505 0 0 0
247 1 4.013316329478024 28.504167723597764 4.090819279946832 0 0 0
537 1 5.384728563502071 27.194564625451072 5.4043190744896075 0 0 0
255 1 9.587476810055792 28.577084124310225 3.888124960002789 0 0 0
545 1 10.948004450998083 27.09218492615053 5.27643514356591 0 0 0
263 1 14.966393846529783 28.57031075786831 4.1033509703073845 0 0 0
553 1 16.318844233649212 27.195056003815935 5.489729218922712 0 0 0
271 1 20.326147705966434 28.470846072713112 4.063163011172689 0 0 0
561 1 21.76402453282535 27.12256355769706 5.392593201783488 0 0 0
279 1 25.930870167925782 28.498009783815753 3.9737731324311047 0 0 0
569 1 27.121234998845257 27.112041163469847 5.450327284835581 0 0 0
287 1 31.150573108266638 28.427984801734237 4.003938995265909 0 0 0
246 1 1.2184460454926964 31.26721492481951 4.051820367829772 0 0 0
532 1 2.5484911479125354 29.73987956802002 5.407701111776368 0 0 0
297 1 5.373060339740372 32.49450635363868 5.373685965174257 0 -1 0
254 1 6.768016127687408 31.147423014863925 4.0680473724904775 0 0 0
540 1 8.220215563312914 29.859613886717938 5.438006675083602 0 0 0
305 1 10.85126937395846 32.56030009668249 5.349000877926663 0 -1 0
262 1 12.293679539897312 31.169540374646147 4.023319670693377 0 0 0
548 1 13.517702513446608 29.89013484589393 5.447505247632832 0 0 0
313 1 16.35567539862645 0.0038863419165622304 5.449407018364905 0 0 0
270 1 17.766112160566955 31.2829939410965 4.1092636216891565 0 0 0
556 1 19.054030595545154 29.86748426722022 5.468965795466674 0 0 0
321 1 21.731207700330483 32.59044448816411 5.407244261493012 0 -1 0
278 1 23.063057078245475 31.220517692554346 4.062972918779579 0 0 0
564 1 24.432412960419832 29.782818670690055 5.303260563898599 0 0 0
286 1 28.461267780262702 31.103052807325543 4.0469092509791125 0 0 0
572 1 29.865663463533664 29.727095654543966 5.40153838867774 0 0 0
290 1 0.02498504071732955 2.7214998747775776 8.22245021539718 0 0 0
293 1 1.3573080079392952 1.3471123103848528 6.730337072473651 0 0 0
295 1 4.12075223246343 1.393590758992958 9.510553630080297 0 0 0
298 1 5.466927825563914 2.7779928547829966 8.120651601477203 0 0 0
299 1 8.1604236138204 -0.0026587122729526897 8.090530870962297 0 0 0
301 1 6.706561167300558 1.282648458082987 6.718134540484496 0 0 0
303 1 9.510006018897295 1.2954587015887151 9.543082627402192 0 0 0
306 1 10.775540130417118 2.6776756340944208 8.148730789415255 0 0 0
307 1 13.526028651282873 0.05620637296721606 8.204869206624153 0 0 0
309 1 12.177612277742307 1.311315860252479 6.80398121986994 0 0 0
311 1 14.988359065002475 1.3137472952131448 9.450334810700024 0 0 0
314 1 16.34429580553948 2.670144553000582 8.14326549760896 0 0 0
317 1 17.75578624168417 1.3979685128339494 6.818704211951359 0 0 0
319 1 20.381362216126774 1.4481290304113268 9.490403976101966 0 0 0
322 1 21.82040095264465 2.7287284081951944 8.147914103657616 0 0 0
325 1 23.05499105371842 1.390435077767538 6.693583550044941 0 0 0
327 1 25.824007876018342 1.353895609855017 9.445393099335265 0 0 0
330 1 27.1765891092277 2.6407827809132423 7.973159763634663 0 0 0
333 1 28.603767053647832 1.3175345567254724 6.742633880401637 0 0 0
335 1 31.203832555559266 1.4095153522084063 9.539281215757427 0 0 0
294 1 1.3467155591728828 4.045490309717333 9.58150443882963 0 0 0
339 1 2.6210408670501524 5.389653937845967 8.200672185131296 0 0 0
296 1 4.062461695445783 4.1125252973000626 6.784529887410473 0 0 0
302 1 6.689468733783604 4.207284382603917 9.520030056333283 0 0 0
347 1 8.121847695307704 5.3794308912336035 8.065537004638353 0 0 0
304 1 9.474707994450544 3.9461824119594895 6.7122870444793366 0 0 0
310 1 12.119495344853746 4.071095056926243 9.46808746870187 0 0 0
355 1 13.590368944814188 5.400374875340533 8.183377773158794 0 0 0
312 1 15.056818597524542 4.0348929901193005 6.849482252116904 0 0 0
318 1 17.612184134653916 4.0597876553802035 9.486380710358045 0 0 0
320 1 20.445621342251176 4.098042999796313 6.765339711472616 0 0 0
363 1 18.98761947055676 5.375729831667008 8.106134670095312 0 0 0
326 1 23.166164403745043 4.006024336243227 9.592156673747661 0 0 0
328 1 25.83736918585061 4.061739981782556 6.7088438505601475 0 0 0
371 1 24.54789410664273 5.402886106585671 8.15702997546126 0 0 0
334 1 28.36555435363873 3.9999586129351092 9.412797790910512 0 0 0
336 1 31.296822542611665 4.093631095736022 6.811136649357619 0 0 0
379 1 29.84954004849054 5.349782268351695 8.17377918931078 0 0 0
338 1 -0.010614690137192694 8.110578781297335 8.047033173201497 0 0 0
341 1 1.3819894487697562 6.824777017713745 6.764536667832896 0 0 0
343 1 3.97731969544726 6.8144130326740475 9.530451607995747 0 0 0
346 1 5.446703884912293 8.092754630783723 8.138379374975536 0 0 0
349 1 6.694929751753023 6.75490832004386 6.736117604069502 0 0 0
351 1 9.418015768932012 6.793104426192477 9.566588999379587 0 0 0
354 1 10.911981014009285 8.106005896809425 8.249533600470102 0 0 0
357 1 12.204332171507929 6.680829552432285 6.864651127816121 0 0 0
359 1 14.880295142968695 6.775448654462367 9.48698299086044 0 0 0
362 1 16.27814736746197 8.03869124253442 8.11763543425813 0 0 0
365 1 17.664095803880997 6.724655326744699 6.737480996316494 0 0 0
367 1 20.313361212646736 6.8280693118152405 9.400461576017571 0 0 0
370 1 21.767300738100793 8.157849994816074 8.169014537444939 0 0 0
373 1 23.18126571308065 6.746237854300256 6.876624450229581 0 0 0
375 1 25.84786730651395 6.735163721257518 9.57361157570854 0 0 0
378 1 27.156387369238608 8.051297671419427 8.062587661663274 0 0 0
381 1 28.558799653162687 6.724949616075519 6.76673600409436 0 0 0
383 1 31.20535108288996 6.844705999651279 9.501234804773224 0 0 0
342 1 1.2700955261133753 9.41235550626119 9.55299287054543 0 0 0
387 1 2.6657432567311448 10.754093010455506 8.134124590539594 0 0 0
344 1 4.056715126087672 9.453295349514129 6.793412569476574 0 0 0
350 1 6.758490430833034 9.388140358430965 9.450082890088215 0 0 0
395 1 8.176535384561685 10.85369950515297 8.168082139414663 0 0 0
352 1 9.517956521104306 9.441034338629493 6.846677006670976 0 0 0
358 1 12.177566140969196 9.530899543814929 9.525864615692493 0 0 0
403 1 13.527868685195347 10.96864405892836 8.199552061591595 0 0 0
360 1 14.868646615208593 9.476077643354188 6.841871265802837 0 0 0
366 1 17.51644191562613 9.453644906295882 9.577341801549505 0 0 0
368 1 20.411180225294647 9.5054281709237 6.814006487447016 0 0 0
411 1 18.9492880088409 10.779588613596257 8.229869682171193 0 0 0
374 1 23.130348364821206 9.549885796899368 9.519034640080621 0 0 0
376 1 25.791523654574117 9.469671285940645 6.736744934855365 0 0 0
419 1 24.507223990354753 10.769920931232727 8.144761577350986 0 0 0
382 1 28.529446330095723 9.532450825525153 9.37546649856836 0 0 0
384 1 31.25349650689615 9.43168790420584 6.706381138070558 0 0 0
427 1 29.82168109096477 10.85036822971797 8.000694816853574 0 0 0
389 1 1.3997290632613182 12.124403466917727 6.742617126304188 0 0 0
391 1 4.022143371568445 12.15811130730572 9.428157091912366 0 0 0
394 1 5.452303957583772 13.577352551174954 8.157466926724645 0 0 0
397 1 6.784932948865134 12.223493493699499 6.758327343503458 0 0 0
399 1 9.583461967960726 12.27126643107445 9.495039684975797 0 0 0
402 1 10.867423445082421 13.532266826818987 8.062346975085969 0 0 0
400 1 9.556152832744115 14.95969181836109 6.77453557179694 0 0 0
405 1 12.16152671555395 12.190466785103721 6.7408529600508 0 0 0
407 1 14.951055809172896 12.282797205764247 9.512098441295908 0 0 0
410 1 16.286191659407802 13.604967957401161 8.095241724364161 0 0 0
413 1 17.603404325721897 12.190090524069324 6.910729331423101 0 0 0
415 1 20.460814273112316 12.094705305502501 9.526809147512802 0 0 0
418 1 21.770386025077865 13.488842979871345 8.158743275201498 0 0 0
421 1 23.164499902225774 12.169698911828222 6.755100218148783 0 0 0
423 1 25.75750944359494 12.130040382187364 9.42062818731752 0 0 0
426 1 27.1100148676448 13.620566672209222 8.119485223268512 0 0 0
429 1 28.381816753906435 12.207513900679057 6.747403665675423 0 0 0
386 1 0.05198795760490782 13.462669953330986 8.084653793120392 0 0 0
431 1 31.138772911811106 12.147432296368338 9.500337877465308 0 0 0
390 1 1.282991901444293 14.817599295342317 9.425991496760508 0 0 0
435 1 2.61469459885064 16.243129253122532 8.150837321086879 0 0 0
437 1 1.339577300925064 17.74973049117096 6.777957598940829 0 0 0
392 1 4.089081205165903 15.017083887468672 6.782018325260045 0 0 0
439 1 4.019318611664035 17.662645925182233 9.51433546819617 0 0 0
398 1 6.812892980890309 14.922967272396138 9.522364137106013 0 0 0
443 1 8.109358866164142 16.310593342902212 8.16167220065349 0 0 0
445 1 6.7889286845750965 17.712212440336494 6.725949779770822 0 0 0
447 1 9.472129770869582 17.759692001654706 9.4979645067585 0 0 0
406 1 12.220888730993904 14.938081425665006 9.445165185569932 0 0 0
451 1 13.564054095651802 16.28965099185239 8.076675895159802 0 0 0
453 1 12.233871952871283 17.637832517522874 6.775310151417448 0 0 0
408 1 14.951772352052929 14.88626304458984 6.803092083526476 0 0 0
414 1 17.707669940052256 14.847439651183485 9.4579435961665 0 0 0
455 1 14.90970230311494 17.556235711675843 9.460323680932184 0 0 0
461 1 17.57970353272908 17.680458259795316 6.841867032264727 0 0 0
416 1 20.42312031982051 14.887295885457146 6.797031803398176 0 0 0
459 1 19.011152861569776 16.251475616745523 8.188319550418035 0 0 0
422 1 22.98275276464676 14.925659222553445 9.4480476496607 0 0 0
469 1 22.95225792490932 17.741454912987116 6.774101557334966 0 0 0
424 1 25.770528960083098 14.889000023210675 6.748091722509143 0 0 0
467 1 24.384869578118924 16.322842132625258 8.079732345120757 0 0 0
471 1 25.79866494341074 17.553987772317896 9.42439260542005 0 0 0