LAMMPS data file via write_data, version 19 Nov 2024, timestep = 60100, units = metal

1728 atoms
1 atom types

-0.02126312854850454 32.601263128548126 xlo xhi
-0.02126312854850454 32.601263128548126 ylo yhi
-0.02126312854850454 32.601263128548126 zlo zhi

Atom Type Labels

1 Si

Masses

1 28.0855

Atoms # atomic

1 1 -0.012287445743501916 0.01654323642636199 0.07278203794898162 0 0 0
4 1 2.582641323269587 2.6689840749481712 -0.0051298626944998385 0 0 0
5 1 1.3243054824692633 1.3224671639548986 1.4286635361826365 0 0 0
329 1 27.175726382529152 0.020190980733893582 11.012029524487877 0 0 0
10 1 5.4572474216063025 2.613787556693661 2.6788113499616153 0 0 0
13 1 6.876681682964795 1.3242711100217013 1.3093540909252326 0 0 0
18 1 10.870635067087461 2.617053224080343 2.585866205224243 0 0 0
1177 1 16.382714042942077 16.175308359238922 10.891165458931265 0 0 0
1051 1 29.844487984739853 16.270051444659686 8.17786366261889 0 0 0
21 1 12.258515478167732 1.2279902862756575 1.212663751932821 0 0 0
26 1 16.326007062221002 2.7660763394680106 2.7641478692452934 0 0 0
29 1 17.55722267917921 1.358842082021368 1.3713013972386814 0 0 0
426 1 27.25411317815702 13.580772870010634 13.57486148526294 0 0 0
34 1 21.677460782179715 2.6579252780207057 2.7498409835807758 0 0 0
37 1 23.075667168849463 1.2979782045072155 1.4057856909576505 0 0 0
42 1 27.107311364476246 2.6556963626228267 2.6795508919493063 0 0 0
45 1 28.454277212875763 1.2921265863432307 1.3006126577140265 0 0 0
2 1 32.45376676203826 2.685901093833438 2.8071304176208827 -1 0 0
430 1 28.511469198833165 14.984501898744584 14.929313989023044 0 0 0
1035 1 19.06397332699945 16.221992601583555 8.159360158418117 0 0 0
145 1 32.51160630220024 0.02239073469220898 5.4618469000298 -1 0 0
51 1 2.5971486821421776 5.412632087324103 2.688501506411994 0 0 0
8 1 4.0612584805448515 3.947766829363114 1.3848094906157884 0 0 0
57 1 5.506404413826056 5.4169293069420945 0.0713230633358269 0 0 0
59 1 8.205819366406619 5.343553286034177 2.6995933777111962 0 0 0
16 1 9.54877045542427 4.021216725579358 1.2891644497473285 0 0 0
169 1 16.274822439369004 -0.019397575717690074 5.466223316135775 0 0 0
67 1 13.545833143049304 5.384831218457 2.7249540523950952 0 0 0
24 1 14.888265605870163 4.004261791916404 1.4051106019522728 0 0 0
32 1 20.419514582874246 4.091006847389195 1.3392951522956595 0 0 0
75 1 18.940659325837885 5.332673090578604 2.727626898107501 0 0 0
153 1 5.387726360189287 -0.009075484489699193 5.423454399602086 0 0 0
40 1 25.785906177392317 3.9740060415764873 1.3145818017923017 0 0 0
83 1 24.416096820101643 5.429598761346248 2.670468158515842 0 0 0
1041 1 21.74216682588354 16.26791663412298 5.4901946326537185 0 0 0
48 1 31.166855984404595 4.045683674589211 1.3395347222059735 0 0 0
91 1 29.825914755571404 5.436296148865012 2.7063879524551644 0 0 0
53 1 1.321571342823973 6.772437970620925 1.3276912914667467 0 0 0
56 1 4.122820091653241 9.456974335290292 1.321678374272609 0 0 0
58 1 5.390849108793967 8.007245424692199 2.700168906821989 0 0 0
61 1 6.8559913015873875 6.846546214457683 1.373194341495595 0 0 0
64 1 9.594184002273405 9.523922485984116 1.404818097922848 0 0 0
66 1 10.959872702398098 8.166133766201476 2.7486414998429325 0 0 0
1033 1 16.303181387399842 16.28139060991667 5.47278925163662 0 0 0
69 1 12.238575799749396 6.687873613731733 1.3158552811891426 0 0 0
72 1 15.028448903932192 9.43762161848001 1.2923380915398353 0 0 0
74 1 16.273251103693426 8.193170502364914 2.7735175264955667 0 0 0
77 1 17.639326992217715 6.842760595514066 1.4411254828309823 0 0 0
80 1 20.385872512314446 9.524169225116825 1.2934357737512951 0 0 0
82 1 21.76556183063579 8.157668666532254 2.6072079606005527 0 0 0
85 1 23.048074994357247 6.795431924164116 1.3101849676978978 0 0 0
88 1 25.860998468230378 9.4999967312334 1.347737890308444 0 0 0
90 1 27.16090191826145 8.152520157226283 2.7449939522864026 0 0 0
93 1 28.39807324396479 6.771649462870359 1.266412576766496 0 0 0
50 1 32.5933495568902 8.050155393301718 2.7343378289526163 -1 0 0
331 1 29.897253570423352 0.02688811619783138 13.601365143561523 0 0 0
96 1 31.27087868803536 9.369682494651125 1.3377340395644342 0 0 0
97 1 -0.008446257319262277 10.793315601709777 0.0010166853018898998 0 0 0
99 1 2.813240375032728 10.899127774778934 2.6737237553559012 0 0 0
101 1 1.3696374631814061 12.17310730049594 1.3481718057001086 0 0 0
107 1 8.115379372029654 10.892849040038012 2.655067452282639 0 0 0
109 1 6.800326743488627 12.233232280772883 1.2961390329707192 0 0 0
891 1 18.97966854455145 16.27656444997006 2.722078454691179 0 0 0
115 1 13.61791968593563 10.74729472631637 2.616363393509931 0 0 0
117 1 12.250071186428006 12.19128304241199 1.3312760118669957 0 0 0
427 1 29.93642126779764 10.941076825409214 13.561101802444906 0 0 0
125 1 17.644306685910724 12.31266354388855 1.2170771335057213 0 0 0
123 1 18.912241584594796 10.88120063462402 2.59860728185811 0 0 0
431 1 31.279928110626567 12.304256386572256 14.956946889508158 0 0 0
133 1 23.13782270065265 12.118564285896115 1.3721803894582114 0 0 0
131 1 24.516510205632628 10.761568572138 2.7466060494166236 0 0 0
419 1 24.494781790480292 10.85325058332411 13.49861292083013 0 0 0
141 1 28.548746627715886 12.225444253297704 1.3113843926882849 0 0 0
139 1 29.93297959182424 10.79507010146619 2.7051321213869137 0 0 0
418 1 21.665039915936294 13.596768763750037 13.533880776808065 0 0 0
104 1 4.052702812563964 14.935346369547384 1.287597643591563 0 0 0
106 1 5.408242965177777 13.581631511591507 2.6732508104348134 0 0 0
108 1 8.1306403472422 13.57780896511744 -0.017325510118985903 0 0 0
875 1 8.07277496463724 16.24007884324621 2.742627788057855 0 0 0
112 1 9.507215479699347 14.896477216056725 1.3565439475207206 0 0 0
114 1 10.877386389166213 13.571740471700764 2.6409751305500215 0 0 0
423 1 25.815621611254606 12.144298602097098 14.867017379903611 0 0 0
883 1 13.57323484689245 16.267080078033654 2.702242401570358 0 0 0
120 1 14.868254414777143 14.97267183878974 1.3058003798199351 0 0 0
122 1 16.287554993883397 13.512563075842321 2.608340177159244 0 0 0
128 1 20.455406788818916 14.906486792234968 1.3392665446770735 0 0 0
130 1 21.73625239863599 13.398564023745982 2.7075001093023943 0 0 0
132 1 24.46723738028322 13.513117344076766 0.01073222935252949 0 0 0
136 1 25.80655932221946 14.930631332562246 1.3488945856707122 0 0 0
138 1 27.178621505347724 13.531478984122732 2.6951378524491396 0 0 0
98 1 0.0013374905158016759 13.636907432208105 2.635156283255051 0 0 0
415 1 20.335445271450826 12.165560887929056 14.847307190207276 0 0 0
144 1 31.20032380219298 14.997484605675716 1.270968072282217 0 0 0
148 1 2.618827115162468 2.745418097309042 5.441690893208804 0 0 0
7 1 4.027625472370442 1.313777921811703 3.9799076590539135 0 0 0
156 1 8.193563701541553 2.7532165051134587 5.425268855509176 0 0 0
15 1 9.535321404154816 1.2972511321135716 4.080180229297034 0 0 0
422 1 23.045544939903206 14.914510609881164 14.846542444366202 0 0 0
164 1 13.518399524419461 2.6229488135680104 5.482299228888396 0 0 0
23 1 14.871493108289654 1.3894503048284412 4.105256930167181 0 0 0
31 1 20.327357420582864 1.3175282507533588 4.09974449698891 0 0 0
172 1 19.012804440194305 2.666454000755577 5.465330922218385 0 0 0
39 1 25.817034066930795 1.3474709454011142 4.130930041573569 0 0 0
180 1 24.423996890276587 2.702849245000483 5.470288479547671 0 0 0
411 1 18.92356239346541 10.773578846110246 13.533509483826561 0 0 0
47 1 31.15506880480736 1.2442879046280222 4.072712230374748 0 0 0
188 1 29.843457590730026 2.640157016197095 5.511727711457993 0 0 0
6 1 1.211427078874765 4.135093123292179 4.069692065520822 0 0 0
193 1 32.46425775395478 5.419680315225027 5.509042487334324 -1 0 0
201 1 5.432991621967183 5.43088774941303 5.4894289698757746 0 0 0
14 1 6.784650717461776 4.039427048982653 4.045351115319707 0 0 0
209 1 10.951375158075914 5.371009787332027 5.460271510841916 0 0 0
22 1 12.224392594331022 3.9285633662957924 4.008332982368673 0 0 0
30 1 17.66511065250885 3.994978772557895 4.151739148114599 0 0 0
217 1 16.298573901398537 5.46283005666028 5.421241970614144 0 0 0
38 1 23.064024929413097 3.997149899840538 4.0507035109614264 0 0 0
225 1 21.66570522968541 5.358048575171936 5.333059628633913 0 0 0
46 1 28.474612452694203 3.9234728360258084 4.009786946880665 0 0 0
233 1 27.198750536786918 5.355677448769824 5.423412369527356 0 0 0
54 1 1.3976510012544137 9.47026844170765 3.9310964415365293 0 0 0
196 1 2.6256238023044642 8.098679500003083 5.449789225857455 0 0 0
55 1 3.9617601361410033 6.641725343561922 4.116359688552801 0 0 0
62 1 6.762504029870126 9.52241806797973 4.003710501760805 0 0 0
204 1 8.20031271556553 8.1162047401759 5.376105984278455 0 0 0
63 1 9.5844627739238 6.725594475247334 4.090641803715002 0 0 0
70 1 12.29652872548923 9.542951221811855 4.096691325018382 0 0 0
212 1 13.638952390276199 8.104448714516002 5.416396322566128 0 0 0
71 1 14.901798349459346 6.753734907799612 3.9603371181325993 0 0 0
78 1 17.654728381171086 9.445042425494606 3.9961540501223722 0 0 0
79 1 20.349958255234252 6.7756505917655945 3.9837461635699536 0 0 0
220 1 19.062966508147948 8.07823813592694 5.392709650958172 0 0 0
86 1 23.10507995440143 9.381183427902101 3.992945403911325 0 0 0
87 1 25.811932941636346 6.732796923423608 4.063458595616279 0 0 0
228 1 24.393306847347905 8.021620554401455 5.459052119702153 0 0 0
94 1 28.517009330383747 9.514465513477163 4.068256364568242 0 0 0
95 1 31.185895370972478 6.82129530610792 4.1423213006022035 0 0 0
236 1 29.857858007466483 8.184751445378044 5.516684628097697 0 0 0
103 1 4.110815936505756 12.203572703082612 4.082320305214002 0 0 0
249 1 5.382620491268667 10.871312003924466 5.50891968535198 0 0 0
111 1 9.521939357404868 12.204476494131006 4.037128709097259 0 0 0
257 1 10.904819572564262 10.937452182738651 5.523357463630956 0 0 0
119 1 14.996998219026624 12.079031091916733 3.92234698470857 0 0 0
265 1 16.34139191985816 10.778443089297658 5.319933267675342 0 0 0
127 1 20.25047392173288 12.126027132534166 3.9962264511267067 0 0 0
273 1 21.654451347237902 10.827373078878104 5.307685050186123 0 0 0
135 1 25.822672588543075 12.237654024887094 4.130403002103495 0 0 0
281 1 27.125975421602043 10.82811461406895 5.450840927375568 0 0 0
241 1 -0.002515694496999288 10.834849290808533 5.242576443533925 0 0 0
143 1 31.22822094741043 12.19904446655765 3.967715939118286 0 0 0
102 1 1.1973567736662296 15.026258032890622 4.069913724766384 0 0 0
244 1 2.7511082120327512 13.653919972810554 5.251844874604338 0 0 0
1017 1 5.379552641926157 16.26156738880659 5.387633101193494 0 0 0
110 1 6.705512518470656 14.849390906861691 4.0547969517519125 0 0 0
252 1 8.103963886231107 13.505836437387728 5.384387771011921 0 0 0
1025 1 10.866221319989615 16.256369400233318 5.418188516884529 0 0 0
118 1 12.271825764478619 14.86598743547077 3.9480034971643043 0 0 0
260 1 13.645679292808554 13.504422089674248 5.29963724296383 0 0 0
126 1 17.591051095683557 14.904122720794245 3.9816296633900508 0 0 0
268 1 18.94269981675009 13.567149867342843 5.401737022306989 0 0 0
134 1 23.104699802486778 14.94033055055678 3.9638175496883465 0 0 0
276 1 24.41718977027434 13.625847274036884 5.4385727195980165 0 0 0
142 1 28.51154410608459 14.93895927914362 4.076632000962813 0 0 0
284 1 29.898993885435704 13.594829390888481 5.438079445234051 0 0 0
146 1 32.59783923102838 2.7007261442254236 8.217042770281342 -1 0 0
147 1 2.7628898914640123 -0.015589350203894261 8.095586444075593 0 0 0
149 1 1.2863224598427572 1.3100679514035674 6.854364569532708 0 0 0
151 1 4.019335052439279 1.3185262367749133 9.380164557220814 0 0 0
154 1 5.336574306983229 2.775364223870774 8.152814173843325 0 0 0
410 1 16.256208491599303 13.514846330798088 13.590867148185035 0 0 0
157 1 6.74691918291182 1.4197514325086604 6.82205194448496 0 0 0
159 1 9.513415690004159 1.25309890088606 9.441945799886176 0 0 0
162 1 10.809861044671871 2.6971308638992686 8.201835307833582 0 0 0
414 1 17.693958162952136 14.906079766636584 14.947381115476096 0 0 0
165 1 12.215380627570438 1.3274334679193762 6.850399645683274 0 0 0
167 1 14.932696550819164 1.3351408524019142 9.580860185512252 0 0 0
170 1 16.163694304419604 2.6749667473875056 8.201049867470699 0 0 0
173 1 17.565628428185697 1.317433128899637 6.827298847433549 0 0 0
406 1 12.229171065110538 14.9452786881135 14.855115394428731 0 0 0
175 1 20.31092731745523 1.23880162937236 9.539383941874013 0 0 0
178 1 21.669867393211355 2.6038990227914782 8.090095271425133 0 0 0
181 1 23.108699458757854 1.2947516719723322 6.79736953505811 0 0 0
183 1 25.876809535925766 1.3432184116028338 9.497796222718637 0 0 0
186 1 27.190848066839585 2.6301677713163834 8.061853486735327 0 0 0
189 1 28.480793595233997 1.1890123876048373 6.766362954631996 0 0 0
187 1 29.89260748967488 0.005397146032657294 8.258835642574857 0 0 0
191 1 31.256584043447017 1.45451310371858 9.57793111966793 0 0 0
150 1 1.2501353909516097 4.087092473289292 9.528791352021702 0 0 0
195 1 2.680653005603064 5.398672997547295 8.17679845894593 0 0 0
152 1 3.9388680661787054 4.087049766370246 6.758949170928175 0 0 0
158 1 6.713497667827868 4.115880456363684 9.466371242792732 0 0 0
203 1 8.185065593458603 5.479410811010807 8.151789367007924 0 0 0
160 1 9.543173690645325 4.067748730269217 6.8550680205941505 0 0 0
166 1 12.263296644879237 4.1292840664092925 9.446595564777764 0 0 0
211 1 13.59964078546598 5.483576615581321 8.109872331309667 0 0 0
168 1 14.91476339681179 4.0735329179626385 6.730664224426968 0 0 0
174 1 17.669935966838544 4.109714270540679 9.44691402042174 0 0 0
176 1 20.36899363666728 3.960916917178651 6.754030994692987 0 0 0
219 1 18.991688950511328 5.402929527015648 8.070488415671221 0 0 0
182 1 23.026840735289074 4.018509284312387 9.423490509561939 0 0 0
184 1 25.757396958679625 4.032966362642667 6.762650361800019 0 0 0
227 1 24.438706746552278 5.436896614327187 8.14714701087639 0 0 0
190 1 28.47301891349873 4.024780441352831 9.535959412360649 0 0 0
192 1 31.16309689688705 3.995585741661453 6.861563865137191 0 0 0
235 1 29.77867448890881 5.414233440954296 8.225652539880247 0 0 0
197 1 1.2768461478188176 6.772788197714486 6.887114424268932 0 0 0
198 1 1.269732482560936 9.49449392384179 9.592137008539753 0 0 0
199 1 4.023356308939744 6.780008386863315 9.545046004464677 0 0 0
200 1 3.9428427626774636 9.500747393179152 6.809331808866444 0 0 0
202 1 5.3365898846454884 8.1413871930128 8.084590582068383 0 0 0
205 1 6.785632150017323 6.800110783156035 6.7726015783103986 0 0 0
206 1 6.742858167965919 9.490620738701022 9.422266652085312 0 0 0
207 1 9.556601196207776 6.863431111913042 9.455581063705868 0 0 0
208 1 9.513818323155462 9.577639479661876 6.764174417301112 0 0 0
210 1 10.914850697480182 8.292871318400088 8.095349146752193 0 0 0
213 1 12.300217701559298 6.778735329116628 6.713682589166355 0 0 0
214 1 12.291672500701756 9.577363198137826 9.543935719129523 0 0 0
215 1 14.867487967877976 6.916478535568114 9.514982309539453 0 0 0
216 1 14.983972774075886 9.464268637207452 6.744121609660143 0 0 0
218 1 16.334344606955337 8.145029318056816 8.119547681350147 0 0 0
221 1 17.638323050632913 6.74361063228721 6.719506402173669 0 0 0
222 1 17.652173920083968 9.438681138552047 9.451883302191701 0 0 0
223 1 20.371454975767602 6.710818936334655 9.440625110592043 0 0 0
224 1 20.416723473915802 9.436310090760855 6.781931371669138 0 0 0
226 1 21.742475474172373 8.106528727620326 8.08889071788193 0 0 0
229 1 23.056353633072536 6.717006950410622 6.73689882941557 0 0 0
230 1 23.108460421661636 9.468068098718428 9.483961465495302 0 0 0
231 1 25.801805580262666 6.725143076833951 9.467125771756844 0 0 0
232 1 25.76923674577128 9.445208617081283 6.764769128855933 0 0 0
234 1 27.18381775887495 8.098218047957117 8.056522443791216 0 0 0
237 1 28.48638996478319 6.768166983975228 6.760801416010697 0 0 0
238 1 28.49362721174195 9.529669407247676 9.430812384963208 0 0 0
194 1 32.587388119492594 8.121904061374552 8.216201877412717 -1 0 0
239 1 31.12242222864306 6.760964816385629 9.60165148082444 0 0 0
240 1 31.297230748362583 9.530353011623587 6.782073396190199 0 0 0
243 1 2.5776505623334582 10.916847367967199 8.163578638190213 0 0 0
245 1 1.2976454548883722 12.309277544140661 6.650388994575362 0 0 0
247 1 4.004190108379245 12.204483839650962 9.480260869590392 0 0 0
251 1 8.053410082029158 10.88665793681076 8.078527530845763 0 0 0
253 1 6.661726668681786 12.209116434983716 6.82207856140329 0 0 0
255 1 9.430490484336213 12.194701070406293 9.436903894386862 0 0 0
259 1 13.630838527143506 10.853881348605974 8.063903981129688 0 0 0
261 1 12.318476354614845 12.223137887927942 6.751314167586626 0 0 0
263 1 14.969928876772851 12.212470698248856 9.528673448216491 0 0 0
269 1 17.609844617535718 12.201662198074077 6.805838753267489 0 0 0
267 1 19.00820179342583 10.879476438668187 8.133195426812097 0 0 0
271 1 20.32173047363322 12.280266188887714 9.447466384851019 0 0 0
277 1 23.068954833283318 12.200811906663512 6.698516536036503 0 0 0
275 1 24.37497448315011 10.840318618358982 8.129820083664512 0 0 0
279 1 25.783890208043704 12.022466171928404 9.553440529278681 0 0 0
285 1 28.5044412057515 12.207783614493085 6.812333311949098 0 0 0
283 1 29.91873684701024 10.924411238591292 8.129058240198637 0 0 0
287 1 31.218039888529102 12.298412996019486 9.474248220657016 0 0 0
246 1 1.3013929731956662 14.912697524182112 9.463986328111758 0 0 0
1011 1 2.8001062740926255 16.22326987329855 8.141376149988103 0 0 0
248 1 4.093457651220581 14.958174147689384 6.738382374337509 0 0 0
250 1 5.4048174625546395 13.598409307714602 8.155981214798766 0 0 0
1019 1 8.13261300278325 16.16230229487396 8.07025710907459 0 0 0
254 1 6.796704063709491 14.931303898655354 9.50984926562817 0 0 0
256 1 9.49657160621903 14.821265155443092 6.6971594827259295 0 0 0
258 1 10.89487434279708 13.500867320803703 8.037059571525717 0 0 0
1027 1 13.560241100915826 16.25416667782751 8.140411121484096 0 0 0
262 1 12.125267372385897 14.950572815194866 9.480217698037967 0 0 0
264 1 14.918409944523903 14.942324225625772 6.806318921494763 0 0 0
266 1 16.273711933442208 13.592228805761831 8.104140999951841 0 0 0
270 1 17.687426528973575 14.854397044784555 9.415022740309052 0 0 0
272 1 20.389647579766926 14.902090091965812 6.77821261969059 0 0 0
274 1 21.829224807396574 13.527316288607754 8.084431592709212 0 0 0
278 1 23.137062688342148 14.871653479601575 9.466341886270346 0 0 0
1043 1 24.57476155837663 16.246083845616667 8.127888903531936 0 0 0
280 1 25.893958091684848 14.88076560871658 6.787007866560591 0 0 0
282 1 27.116583819369463 13.440849223319484 8.190781100894798 0 0 0
286 1 28.449270759372766 14.922895625648737 9.506457092484453 0 0 0
242 1 32.58555285494234 13.596369982910833 8.090088120274903 -1 0 0
288 1 31.308237774261126 14.991577386602046 6.775299937985211 0 0 0
289 1 32.59824514311486 0.06837508547628089 10.92325502640652 -1 0 0
292 1 2.6457715415906047 2.6775724949757524 10.796732567121728 0 0 0
293 1 1.3649480687444684 1.3106666185811797 12.353784046227126 0 0 0
300 1 8.105922190426238 2.6958568537148255 10.769366075427191 0 0 0
301 1 6.684554752850934 1.3114937207696402 12.169087821233392 0 0 0
402 1 10.853265678893393 13.591314013291507 13.551037096675136 0 0 0
308 1 13.538141938669066 2.777445924021124 10.910636808366299 0 0 0
309 1 12.174221330256316 1.3702428399601179 12.182667331247442 0 0 0
540 1 8.201182046969521 13.461747861407623 16.277276410806284 0 0 0
317 1 17.619023629263847 1.3787863196798569 12.189941780451345 0 0 0
316 1 18.992546431864103 2.7671446397751196 10.871503157027439 0 0 0
325 1 23.07767311729204 1.2214914601600586 12.265663436257755 0 0 0
324 1 24.411521720191 2.625180232373129 10.800028282804403 0 0 0
333 1 28.486482909158866 1.403923129633047 12.306551272230642 0 0 0
332 1 29.87578687951239 2.820222308344467 10.886468435867176 0 0 0
296 1 3.966288175579087 3.9928390463114063 12.222321538088039 0 0 0
345 1 5.29862016965755 5.378397679571393 10.963723365961016 0 0 0
304 1 9.553163288494279 4.111803140317095 12.140469629988294 0 0 0
353 1 10.910641173627802 5.485784759984786 10.85043613636171 0 0 0
312 1 14.82644059974472 4.217534188748507 12.233371660388524 0 0 0
361 1 16.23254307598769 5.464607093113547 10.847398461674356 0 0 0
320 1 20.415548324004824 4.038144944424312 12.173663879263275 0 0 0
369 1 21.767916026908935 5.436892505040116 10.799514502531075 0 0 0
328 1 25.679844181645226 4.076670383261851 12.229333704683734 0 0 0
377 1 27.052111492864707 5.400867538897571 10.860376619623066 0 0 0
337 1 32.58778751809488 5.4238196561243885 10.921921798427643 -1 0 0
336 1 31.203152890666406 4.0276780034053505 12.248480331430612 0 0 0
340 1 2.6951479610792846 8.130891934294096 10.97393600989829 0 0 0
341 1 1.3457494052132681 6.730180471840114 12.182986993205146 0 0 0
344 1 4.086538140764349 9.586058926022556 12.285936990982401 0 0 0
348 1 8.095043963903569 8.127140940598295 10.849242269547666 0 0 0
349 1 6.67571404028928 6.7691458968413105 12.298590174805662 0 0 0
352 1 9.475795250972553 9.472622394533433 12.214060460789 0 0 0
356 1 13.590345572365953 8.189943875151721 10.946155479128546 0 0 0
357 1 12.21109746398469 6.828975193287722 12.312960521306783 0 0 0
360 1 14.995722637639153 9.43686719896367 12.207204556679656 0 0 0
365 1 17.669126940028292 6.782376403070345 12.247250959342571 0 0 0
364 1 18.999382571760503 8.098381850434988 10.765909487400389 0 0 0
368 1 20.332314912236804 9.470769609626599 12.175966848294687 0 0 0
373 1 23.058224754546572 6.786031105484391 12.27057404354784 0 0 0
372 1 24.452129185427058 8.126894033936203 10.873248046725847 0 0 0
376 1 25.82247920210303 9.464629736182761 12.227690438402743 0 0 0
381 1 28.517304009876 6.74729549659322 12.202573202720075 0 0 0
380 1 29.771471646696007 8.258990979471525 10.95755033475546 0 0 0
384 1 31.222475652462293 9.573522137893958 12.267626524827735 0 0 0
389 1 1.277904559936808 12.23620174484056 12.254818644216087 0 0 0
393 1 5.361758317990702 10.78014758321008 10.804532956116999 0 0 0
397 1 6.748407389030325 12.22588458187782 12.246942683030893 0 0 0
401 1 10.85115936235348 10.85442072653782 10.834577995160824 0 0 0
405 1 12.199313051819043 12.168690682350073 12.240473607979778 0 0 0
409 1 16.319068714434536 10.84180658091114 10.837024394077241 0 0 0
413 1 17.622867044657497 12.222334720104326 12.210947653263098 0 0 0
417 1 21.71341765796808 10.846905125416017 10.815025982216742 0 0 0
421 1 23.06105409343913 12.178941718774903 12.231496940660364 0 0 0
425 1 27.175668031976695 10.829215710286926 10.90608230020809 0 0 0
429 1 28.545296431693345 12.213473200487252 12.13550409681681 0 0 0
385 1 32.54573804757419 10.92401211675472 10.857996440579672 -1 0 0
388 1 2.6251670105922673 13.5147218852354 10.874963016541313 0 0 0
398 1 6.794239634050939 14.8944994411055 14.968005501440556 0 0 0
392 1 4.066972502112839 14.89792678538977 12.183497572727541 0 0 0
396 1 8.090236951253502 13.533029627418207 10.836028708904061 0 0 0
1163 1 8.065139892765671 16.262255670282208 13.54429937980747 0 0 0
400 1 9.482547596339453 15.003568907022535 12.11226137839594 0 0 0
404 1 13.533732242163243 13.579330745270289 10.840290532104106 0 0 0
408 1 14.936004678390427 14.851197990813986 12.20326646532535 0 0 0
412 1 18.964302365103485 13.512189924525392 10.875463782348724 0 0 0
416 1 20.40910560247449 14.965766132639803 12.139454442222117 0 0 0
420 1 24.428620315151218 13.523103640259265 10.815823302654346 0 0 0
424 1 25.744885475222627 14.91617335117217 12.222244414328635 0 0 0
1193 1 27.14225197696156 16.281662604089554 10.943451579252976 0 0 0
428 1 29.847486021229805 13.625379592177168 10.800685251261001 0 0 0
432 1 31.180462034189905 14.987876184332773 12.16518186477442 0 0 0
290 1 32.57884536509913 2.672440799520119 13.618941330074605 -1 0 0
291 1 2.7037648153616134 -0.009666652863729426 13.668558406471757 0 0 0
436 1 2.6528469264958154 2.6583584471577 16.2672539585342 0 0 0
295 1 4.054375747629625 1.3746615098277513 14.992270843601434 0 0 0
298 1 5.358218234786267 2.647957289137574 13.597223070468944 0 0 0
394 1 5.471200804078877 13.606445787060746 13.567985704786727 0 0 0
444 1 8.184778183086578 2.6588898521437856 16.192842368787847 0 0 0
303 1 9.438889225404239 1.1956126512177405 14.847609606153702 0 0 0
306 1 10.777632662167626 2.6769605302615886 13.556597862866802 0 0 0
532 1 2.731536031567507 13.54834367618567 16.288883829159207 0 0 0
311 1 14.95897853941647 1.2838557475565808 14.890537674244198 0 0 0
314 1 16.25275453918325 2.8508293599693935 13.545900234610771 0 0 0
386 1 0.042312740494102594 13.661416692907704 13.568482569297919 0 0 0
315 1 18.99225977323808 -0.0048277387432617775 13.575062135494827 0 0 0
319 1 20.38470113173472 1.2701128937945219 14.892550991174769 0 0 0
407 1 14.904200426123214 12.181910567984527 14.883095097251855 0 0 0
322 1 21.74597244799468 2.6408203259627583 13.59158402944446 0 0 0
390 1 1.3909711864438001 14.975299272274507 14.928169556539318 0 0 0
327 1 25.725445991416926 1.3193676649493513 14.984925234724242 0 0 0
403 1 13.651859530086567 10.798926445150602 13.52486521889029 0 0 0
330 1 26.9513707872048 2.724101358514141 13.640447825068659 0 0 0
399 1 9.452430236970967 12.138512696203064 14.898474198115299 0 0 0
335 1 31.250165574173515 1.3203352737966336 14.969863670898214 0 0 0
476 1 29.886820963839074 2.69081656602473 16.263292984481208 0 0 0
294 1 1.2946881941894917 4.02210526885156 15.009199725884615 0 0 0
339 1 2.628050426473059 5.391144197722544 13.59185077196632 0 0 0
302 1 6.801992931295997 4.056581400588117 14.834547329560836 0 0 0
347 1 8.201890797010915 5.456959355215663 13.549091161084752 0 0 0
310 1 12.21315503351593 3.968472133980913 14.924849916663216 0 0 0
355 1 13.585224011583275 5.472458157917968 13.628363879073962 0 0 0
318 1 17.644944143488168 4.13602388102075 14.988887756351724 0 0 0
363 1 19.004881612435305 5.4121785931914665 13.516745395783259 0 0 0
326 1 23.063817883066026 4.025828536431453 15.025792220500428 0 0 0
371 1 24.388693463585508 5.410887771162967 13.662689451867456 0 0 0
334 1 28.47890882530735 4.08876172695169 14.938140617241968 0 0 0
379 1 29.798883005549364 5.333448435941394 13.542470293570593 0 0 0
342 1 1.3476074080735827 9.5592839178997 14.959602946543267 0 0 0
343 1 3.9562628443664365 6.68721751571559 14.989599310341454 0 0 0
346 1 5.398645171933572 8.148700342994506 13.70588163009595 0 0 0
350 1 6.721484613801857 9.516653758079444 14.995490548086087 0 0 0
395 1 8.080092675205528 10.839177675746438 13.640522011351488 0 0 0
351 1 9.504335673498112 6.8434262667941095 15.004482095062702 0 0 0
354 1 10.858757925567561 8.185291538089505 13.626367696621045 0 0 0
358 1 12.277145330801085 9.529561166160155 14.94829181564334 0 0 0
391 1 4.130240593228219 12.282681290957374 14.973009862187956 0 0 0
359 1 14.950936142285267 6.812785190664707 15.024117832782188 0 0 0
362 1 16.280654461146305 8.140380408538283 13.677622218647617 0 0 0
366 1 17.69108473426732 9.476893259734537 14.947725955298475 0 0 0
367 1 20.33001324094117 6.743100003150595 14.963430000751934 0 0 0
508 1 19.035328800526045 8.127328269086464 16.280924923465207 0 0 0
370 1 21.646206405907837 8.091474504600383 13.565171421642615 0 0 0
374 1 23.03586440503541 9.508143735178159 14.868612830468813 0 0 0
375 1 25.738918221515416 6.792195922277934 14.945570761215027 0 0 0
378 1 27.130181315647693 8.087577001447183 13.599420063887536 0 0 0
382 1 28.500569523586535 9.523344918391949 14.87459747296749 0 0 0
338 1 0.05832748310883318 8.116482826452916 13.6012601223544 0 0 0
383 1 31.23196553525805 6.682865904251507 14.874948720845415 0 0 0
524 1 29.894035028078136 8.10441236829653 16.24723025445478 0 0 0
387 1 2.7099635198876757 10.996485266952403 13.601718909170577 0 0 0
529 1 -0.005595457150087935 10.86487438382686 16.284014919830483 0 0 0
481 1 32.59685149394631 5.401577682162284 16.280163146604092 -1 0 0
497 1 10.991145476747949 5.357641351056967 16.256906258795112 0 0 0
521 1 27.079372191757503 5.382319148643903 16.27450668706425 0 0 0
516 1 24.385857642902643 8.126468954783821 16.27052707596259 0 0 0
553 1 16.249418002949557 10.899838625455615 16.252077495130372 0 0 0
561 1 21.701560421636206 10.814810529015396 16.25235479739514 0 0 0
1313 1 10.891276090637808 16.24435164824199 16.272359717723674 0 0 0
548 1 13.571306886000249 13.618758795329192 16.251086088705637 0 0 0
1329 1 21.814401083339657 16.237264380275352 16.265348351034056 0 0 0
564 1 24.46648075717077 13.586026771844075 16.194385625912876 0 0 0
12 1 8.156088090831506 2.658214568055225 0.026341647442983174 0 0 0
28 1 19.033527130869075 2.6306223505143858 0.06302220584687035 0 0 0
73 1 16.25871144071454 5.420801030667535 0.13771862189666706 0 0 0
60 1 8.105158443505715 8.27790596716765 0.04548043977784744 0 0 0
76 1 19.057488387090846 8.101414608009724 -0.0036451578619036695 0 0 0
84 1 24.523854599565883 8.097385711482671 0.005279207477769887 0 0 0
818 1 0.010262566899683634 13.53570926643019 29.830648596778087 0 0 0
434 1 32.570708205294316 2.6442521106345933 18.99138620555513 -1 0 0
858 1 27.154819905518814 13.636925157862807 29.821402470248064 0 0 0
437 1 1.3804211299169644 1.2911200321784269 17.69557268419188 0 0 0
441 1 5.37634150133967 0.006457754928758683 16.33189420040412 0 0 0
442 1 5.382374206673993 2.7382165858746186 19.037202294719364 0 0 0
445 1 6.765856207651448 1.392619024654291 17.667407036030905 0 0 0
450 1 10.884070444468643 2.644839050798345 18.962047135951348 0 0 0
862 1 28.580738318021208 14.910163413334528 31.188210915961434 0 0 0
452 1 13.57749288246696 2.6198120911878906 16.350497521328936 0 0 0
453 1 12.20470870824946 1.2663273137514972 17.67833250076864 0 0 0
458 1 16.271279406358566 2.7124547883539067 18.95283563338145 0 0 0
461 1 17.60287786850424 1.306614823140593 17.583897552538968 0 0 0
1619 1 24.47048599430561 16.288507752456475 29.7970678969236 0 0 0
466 1 21.722568828412165 2.7013304278113623 18.972524491018902 0 0 0
469 1 23.078354674684533 1.2713502789198556 17.744949103917172 0 0 0
897 1 21.851643809241466 16.23172470686264 32.4785780792364 0 0 -1
474 1 27.25080262605956 2.780966495523511 18.92624745954518 0 0 0