LAMMPS data file via write_data, version 19 Nov 2024, timestep = 60000, units = metal

1728 atoms
1 atom types

-0.01479845040823946 32.594798450408064 xlo xhi
-0.01479845040823946 32.594798450408064 ylo yhi
-0.01479845040823946 32.594798450408064 zlo zhi

Atom Type Labels

1 Si

Masses

1 28.0855

Atoms # atomic

619 1 29.76774413565863 0.029681765055087794 13.600249592029934 0 0 0
2 1 32.57958407430903 2.606092055596414 2.724345485939599 -1 0 0
3 1 2.665688464145178 32.574506230663985 2.7800694098870853 0 -1 0
5 1 1.2897929405385011 1.336958147546012 1.3726603019919872 0 0 0
10 1 5.482386077739414 2.7369699907432428 2.694142133609591 0 0 0
13 1 6.781565049212432 1.3137084336378893 1.3041560170213657 0 0 0
18 1 10.864274832890553 2.648421325421591 2.735732998740685 0 0 0
20 1 13.622212028492307 2.667987532834959 0.04481816056784345 0 0 0
21 1 12.34301465064646 1.3277429437305652 1.356284775484359 0 0 0
26 1 16.290725391815176 2.5971750236526456 2.7901551009698378 0 0 0
29 1 17.624693896162892 1.3756065448102979 1.3504232108942138 0 0 0
27 1 19.0178135231678 0.01787903021386924 2.6820318685777345 0 0 0
34 1 21.753690880489078 2.6910849741581546 2.6529220774342974 0 0 0
37 1 23.185457829552995 1.3099063461089948 1.284969813682851 0 0 0
35 1 24.44553903325058 -0.0027061628917075136 2.6850491746189116 0 0 0
818 1 0.04822891595048873 29.912168458470173 13.611565774108907 0 0 0
42 1 27.029951642324114 2.617999673434136 2.717416757376923 0 0 0
45 1 28.42715884037554 1.3266989949639925 1.3308107046167228 0 0 0
43 1 29.814823012031336 32.53379546426767 2.5801914513549447 0 -1 0
51 1 2.6468769815692994 5.4243468705519255 2.827893390634476 0 0 0
8 1 4.075163299599663 4.117937544106202 1.4206503744359706 0 0 0
59 1 8.123500186381536 5.427566906636786 2.7264387128040193 0 0 0
16 1 9.493280323264386 3.986234526762792 1.3510263245340295 0 0 0
67 1 13.591927209706562 5.4420423598811505 2.6408834022769034 0 0 0
24 1 14.955773970358916 3.980912204208677 1.4824221246040756 0 0 0
73 1 16.312849717701454 5.342521435652788 0.1113704881998828 0 0 0
32 1 20.377394366020294 4.0860457231203915 1.3779139776543083 0 0 0
75 1 18.976005490812778 5.305483788218109 2.7514594038854687 0 0 0
905 1 27.122469386408028 -0.0036575068343083217 16.28470399249004 0 0 0
40 1 25.73076794746432 4.000901783178957 1.3191169551905446 0 0 0
83 1 24.440548198250582 5.391438697171733 2.6511047004809916 0 0 0
858 1 27.227299990376697 29.84854580144121 13.561694900514901 0 0 0
48 1 31.230358426295734 4.005454730807821 1.3016602855740358 0 0 0
91 1 29.86931408621061 5.327333354336469 2.6525074288733155 0 0 0
862 1 28.528363505708004 31.18136356944726 15.002186907422532 0 0 0
53 1 1.382132460844362 6.690509379085279 1.340565497612333 0 0 0
58 1 5.431404813198443 8.102192212920924 2.650068781300395 0 0 0
611 1 24.49117136178923 0.014027135386641021 13.54855059905352 0 0 0
61 1 6.817208453577827 6.777648661341225 1.322628189778985 0 0 0
66 1 10.828385048269354 8.153865537675484 2.8041368289968593 0 0 0
68 1 13.51946065277082 8.093544328611628 0.042071540966927196 0 0 0
69 1 12.170885572126098 6.732005215449683 1.3834194931372907 0 0 0
74 1 16.33881276285679 8.09230612091235 2.771888070642469 0 0 0
77 1 17.698069515548294 6.682271891717858 1.3689331562285572 0 0 0
76 1 19.03540872816956 8.077479985855641 0.02432578936835045 0 0 0
82 1 21.75149436006336 8.092102602934215 2.7472613138250366 0 0 0
85 1 23.115599587456774 6.748375416614095 1.3220610953698795 0 0 0
90 1 27.1776759067902 8.118224812348735 2.660333071323614 0 0 0
93 1 28.49575722079801 6.783039865624742 1.3388702705954199 0 0 0
50 1 0.017439640872659368 8.08887094806523 2.668852449865838 0 0 0
99 1 2.716148362276211 10.8156537502436 2.5160972047536627 0 0 0
56 1 4.075277365686675 9.39432698319997 1.2432681678798987 0 0 0
850 1 21.71928407007108 29.982623430167408 13.51655539600183 0 0 0
107 1 8.063729898072589 10.858673263595708 2.782326081057889 0 0 0
64 1 9.392008713081832 9.493186906758382 1.4975498498651711 0 0 0
113 1 10.788867231415056 10.696807555688762 -0.012959204265815061 0 0 0
115 1 13.631732596587247 10.852991093020504 2.7619471983015793 0 0 0
72 1 14.937416190244017 9.444390189081377 1.4231891973034954 0 0 0
121 1 16.27404334627612 10.781627499529645 0.015349950580345226 0 0 0
80 1 20.4254722234351 9.485307072434027 1.4137285491166822 0 0 0
123 1 18.995172230644332 10.868155724415567 2.6910702303844105 0 0 0
88 1 25.83520861547198 9.441013497779286 1.3148702214419268 0 0 0
131 1 24.45259115981279 10.776670500030685 2.686919295091774 0 0 0
96 1 31.247193297843523 9.484598649269055 1.1896613220988954 0 0 0
139 1 29.88303720381242 10.805870098347825 2.655385464508999 0 0 0
98 1 32.492685642301836 13.56107839687448 2.6469640416791846 -1 0 0
101 1 1.341224970334713 12.228481267955907 1.2322451931445053 0 0 0
106 1 5.360866209847501 13.541456265550016 2.7040853182340188 0 0 0
108 1 8.120695641589414 13.511997473894652 0.023032137838306873 0 0 0
109 1 6.784162333104793 12.216216259074628 1.3717839180266558 0 0 0
114 1 10.91836768460331 13.526176041690498 2.665737154654857 0 0 0
854 1 23.145255236622347 31.269043591971254 14.839603806381113 0 0 0
117 1 12.202415234125159 12.096323534215633 1.3100098193563046 0 0 0
122 1 16.283867539392578 13.65453315200889 2.627431573473651 0 0 0
125 1 17.62875015829096 12.247757831614233 1.3279986336716636 0 0 0
1132 1 19.05730247641942 29.916030295673647 16.23851647765398 0 0 0
130 1 21.705141784217737 13.5657318567252 2.6693339290342433 0 0 0
133 1 23.013651181174865 12.139810758957289 1.3388811956130202 0 0 0
842 1 16.347495564123356 29.90503457271504 13.598412460721553 0 0 0
138 1 27.13224595662783 13.556829434828751 2.697466301080962 0 0 0
141 1 28.546762544176413 12.218004411985717 1.3902846774365807 0 0 0
846 1 17.723486013541955 31.296622817897187 14.944207478830046 0 0 0
147 1 2.668951205258535 16.22341938135383 2.5720894527794034 0 0 0
149 1 1.3188232140073197 17.696217740745116 1.3582148567564671 0 0 0
104 1 4.129142769607332 14.894293573030621 1.2376735888948127 0 0 0
155 1 8.181119487478819 16.22953892675123 2.6730552131604166 0 0 0
157 1 6.852058580231234 17.625476618602846 1.2192612512640273 0 0 0
112 1 9.534408132538017 14.883184592549277 1.2947388749639404 0 0 0
163 1 13.486721187385175 16.2735531979603 2.8114862974556702 0 0 0
165 1 12.176310607833251 17.65823119948219 1.3796468776450237 0 0 0
120 1 14.845400419995892 15.034901135073858 1.3636415684894083 0 0 0
169 1 16.305266536946263 16.325770709126704 0.031025742820314756 0 0 0
173 1 17.707217456897176 17.64081356276337 1.3082747068173182 0 0 0
128 1 20.39700769093804 14.982767172452874 1.2049439325186315 0 0 0
171 1 19.074870746163516 16.282716339926903 2.6725701786150906 0 0 0
1124 1 13.567949915585995 29.904041025015452 16.269443515494842 0 0 0
181 1 23.095395876020852 17.65714329139718 1.3727893728937135 0 0 0
136 1 25.727091494068915 14.933187189015676 1.3291255436485412 0 0 0
179 1 24.478781567726255 16.264055159622814 2.75599899377961 0 0 0
189 1 28.486041516318675 17.54307674590725 1.414088617569087 0 0 0
145 1 32.576858585381345 16.299777724741965 -0.012102556254786925 -1 0 0
144 1 31.250670929508644 14.900893895129734 1.2298201757443008 0 0 0
187 1 29.960546346031265 16.173854502422174 2.651726292896253 0 0 0
148 1 2.7527552639844277 19.054927700718732 0.025192696916803016 0 0 0
152 1 4.140368150974255 20.49484330334641 1.3100832347523355 0 0 0
154 1 5.408052100550591 18.963936820280917 2.613841069993492 0 0 0
160 1 9.486036423883348 20.29752080100133 1.3631647705491596 0 0 0
162 1 10.79682263006768 18.988029945883888 2.69356271565509 0 0 0
164 1 13.559337245025942 18.966985603076523 0.023483256819253777 0 0 0
168 1 14.956889837889669 20.36843264895688 1.3092565606224933 0 0 0
170 1 16.355229496374434 18.96351956019024 2.6128728967580055 0 0 0
176 1 20.398177897524825 20.356329935947358 1.3559330443255457 0 0 0
178 1 21.706195541402877 18.998360243797013 2.719544065884463 0 0 0
595 1 13.689342781916812 32.58632004753012 13.539817319308867 0 -1 0
184 1 25.743026581142885 20.317370972779063 1.340339886197461 0 0 0
186 1 27.180670288472108 18.990265128659058 2.6867024931325574 0 0 0
146 1 32.52831541037931 19.075480264100758 2.623050360582297 -1 0 0
188 1 29.861566199653048 18.9986015106277 -0.010939325253444489 0 0 0
192 1 31.24562975022733 20.341548879203117 1.2504468884519555 0 0 0
193 1 32.591289083539046 21.782166281253915 -0.008436870820724375 -1 0 0
195 1 2.706161498962212 21.83157665789635 2.6622687447469335 0 0 0
197 1 1.3248581721106918 23.14554605951773 1.3652397445527757 0 0 0
838 1 12.248037007883939 31.275064503769155 14.857672017396991 0 0 0
203 1 8.14810003218192 21.68753789032532 2.716340466589912 0 0 0
205 1 6.799766496182675 23.051872648208263 1.3217525782122923 0 0 0
211 1 13.546821379153489 21.664896818998177 2.696786403680426 0 0 0
213 1 12.20992341914049 23.06881305746353 1.3035452986720144 0 0 0
221 1 17.63582222162719 23.10333428518219 1.3961796852251285 0 0 0
219 1 19.00638720608637 21.684674852763045 2.6710865372580996 0 0 0
881 1 10.889153263189739 32.55119221646676 16.253500685753632 0 -1 0
229 1 23.113666658108425 23.073741704871473 1.2936126242539217 0 0 0
227 1 24.397226468343167 21.716056332656553 2.691760481083567 0 0 0
834 1 10.90134628571356 29.892803523950555 13.542965564402078 0 0 0
237 1 28.517626114805374 23.116980449794056 1.2638740931282086 0 0 0
235 1 29.822995371315898 21.72870676767126 2.5341073539010566 0 0 0
196 1 2.639113720299592 24.560779580972664 0.014570354550560036 0 0 0
200 1 4.111489749482426 25.85486437805543 1.367198877931287 0 0 0
202 1 5.480878009575379 24.383422555396088 2.643462277737962 0 0 0
204 1 8.13232581729291 24.46015233002252 -0.008664030237925748 0 0 0
208 1 9.476874174380333 25.877366046286305 1.416522760248932 0 0 0
210 1 10.858659318571064 24.527439152154628 2.7054673111444454 0 0 0
216 1 14.964992813569486 25.801179370281094 1.388488601242668 0 0 0
218 1 16.26027225592461 24.40531582360622 2.7517425933675694 0 0 0
224 1 20.463746056939367 25.797890021026898 1.3973663683419433 0 0 0
226 1 21.78475090182224 24.326487271083046 2.7344979436209376 0 0 0
232 1 25.83379268606343 25.771026193735107 1.3431553368006452 0 0 0
234 1 27.12525312786968 24.402154449389148 2.7144088264191644 0 0 0
194 1 32.57126616534449 24.418569821533406 2.7035393479511294 -1 0 0
1116 1 8.273428164818345 29.883569929987473 16.289422468856756 0 0 0
240 1 31.23017758332071 25.77403883092838 1.2981482996036535 0 0 0
243 1 2.781355635736291 27.19824843929936 2.748223630841646 0 0 0
245 1 1.4032393746012508 28.456276982579528 1.3861422988508563 0 0 0
249 1 5.4861628793044686 27.19704658732058 -0.005937684322196603 0 0 0
251 1 8.13018519130342 27.146634750252616 2.82736607651238 0 0 0
253 1 6.783510467837923 28.533038865134404 1.3524366808253045 0 0 0
259 1 13.586411669301063 27.184379545573186 2.7082898297001172 0 0 0
261 1 12.226138471768971 28.511980110446675 1.3742762635859451 0 0 0
269 1 17.654597744285454 28.46674140197562 1.3774841993697022 0 0 0
267 1 19.08362846873078 27.13387499423895 2.7135606346518903 0 0 0
273 1 21.76242330191537 27.209624121873453 0.029963467040356385 0 0 0
277 1 23.14458043115715 28.589659169160843 1.3168582706596823 0 0 0
275 1 24.53141954356173 27.215717386550395 2.625998411104652 0 0 0
281 1 27.2105130897571 27.13454785477476 0.01893620494869406 0 0 0
285 1 28.551456440481115 28.479960909848376 1.3959985929919512 0 0 0
283 1 29.927161681574624 27.07591858718456 2.7394719588723797 0 0 0
248 1 4.0309612210338805 31.33405106627949 1.326464578204408 0 0 0
250 1 5.4382367622371435 29.956536738228067 2.6712422551833184 0 0 0
11 1 8.200048727758944 -0.009711666967383792 2.681292984690724 0 0 0
252 1 8.14062317024097 29.865750996012295 0.004110446951420491 0 0 0
17 1 10.892466853573369 32.55185614490889 0.02383234344810929 0 -1 0
256 1 9.492535055684327 31.170981268289715 1.420347080574979 0 0 0
258 1 10.879583246812038 29.864652802426843 2.774399831560097 0 0 0
19 1 13.580274475276944 32.55173228599251 2.704627929484383 0 -1 0
587 1 8.177300340184205 32.505536062492745 13.56589153091951 0 -1 0
830 1 6.830791112660077 31.22634973817462 14.908699335513116 0 0 0
264 1 14.982703653706126 31.286594038512693 1.3660686195305896 0 0 0
266 1 16.305972088030224 29.85019994624025 2.658765290769741 0 0 0
272 1 20.390282312130267 31.28283418020639 1.4005382856149182 0 0 0
274 1 21.7863379130018 29.847424916147425 2.6957381318294047 0 0 0
280 1 25.829706959382605 31.232352108191268 1.3414696834169673 0 0 0
282 1 27.1810426428491 29.87552834063828 2.6928367176451093 0 0 0
242 1 0.0532721469670534 29.87988375637044 2.7013115130279806 0 0 0
284 1 29.92177045651925 29.84912321873472 0.018116246535417546 0 0 0
288 1 31.26012705078632 31.211500135773615 1.3623301583687553 0 0 0
292 1 2.720821970043684 2.6636966656018015 5.451566558430705 0 0 0
7 1 4.102826819876707 1.3295603410867312 4.092605425417904 0 0 0
297 1 5.457900371538365 32.56892519008705 5.435969632191083 0 -1 0
300 1 8.091057813634086 2.739061014596438 5.446035443544213 0 0 0
15 1 9.477669308280467 1.381891967755065 4.106676804273765 0 0 0
308 1 13.502909079396364 2.7107708225701526 5.344697189981386 0 0 0
23 1 14.906613027454696 1.3292323610392376 4.075596792776652 0 0 0
313 1 16.23466313014037 32.5665232593018 5.432521974583276 0 -1 0
31 1 20.383543552939948 1.331115718154953 4.144712221130262 0 0 0
316 1 19.06415725666656 2.7012960301885576 5.542522938465749 0 0 0
39 1 25.711867748544847 1.3907118082787322 4.065042227982384 0 0 0
324 1 24.389203439260992 2.8560403729259938 5.377465925728916 0 0 0
329 1 27.102850240068328 0.02034130163963036 5.4571321306651095 0 0 0
289 1 32.49773767962428 0.04707683048509393 5.443383522034332 -1 0 0
47 1 31.123342176894543 1.3575769688878656 4.014131624099224 0 0 0
332 1 29.805282605597288 2.7644086056726875 5.311848941420266 0 0 0
6 1 1.290772824367591 3.994347640004915 4.122358840453747 0 0 0
345 1 5.426136830384523 5.431189228879737 5.433644932497208 0 0 0
14 1 6.789780734176721 4.086439192039685 4.036524854586158 0 0 0
353 1 10.84622249395254 5.432577539744446 5.394370897021852 0 0 0
22 1 12.20340801756706 4.040848137749959 3.9669575562098798 0 0 0
30 1 17.62421769128867 3.9946213603962546 4.179612229455519 0 0 0
361 1 16.272583976350216 5.462491250391793 5.504123081547868 0 0 0
38 1 23.050454063770577 4.140271734530589 4.047090145362258 0 0 0
369 1 21.705472354150462 5.480151107811604 5.361059109640394 0 0 0
46 1 28.42419372968352 4.05817765331351 3.977228940874127 0 0 0
377 1 27.09398059681897 5.514018699417806 5.410663164149952 0 0 0
337 1 32.54692194199976 5.446960640309698 5.34450870571973 -1 0 0
340 1 2.643326174263596 8.140699000533651 5.360486006696552 0 0 0
55 1 4.065106901259174 6.851371327569567 4.08305500639629 0 0 0
348 1 8.1071813086802 8.118823230992936 5.50740303124959 0 0 0
63 1 9.47215842848364 6.789796413820164 4.132965422276386 0 0 0
356 1 13.624473639046727 8.16879043343443 5.4819060414907 0 0 0
71 1 14.931545232471578 6.791516570909789 4.100970980938817 0 0 0
79 1 20.340578635450655 6.779745491285745 4.005641204909366 0 0 0
364 1 19.11228962571343 8.201606996258633 5.45734499412047 0 0 0
87 1 25.787291271808545 6.847136722552966 3.9944044113755757 0 0 0
372 1 24.394119835887007 8.155526366302032 5.400338095791703 0 0 0
95 1 31.20328098362155 6.774354141771223 3.995759154949653 0 0 0
380 1 29.844858156257015 8.10551699355318 5.403943238573096 0 0 0
54 1 1.3341510174399813 9.526539315066762 3.9827009529900868 0 0 0
385 1 32.59302428912736 10.890162037882153 5.337221063502968 -1 0 0
393 1 5.397491795127507 10.864440027067651 5.382769658123151 0 0 0
62 1 6.725959093197376 9.406623086798811 4.084513037469607 0 0 0
401 1 10.834701560458361 10.85179767185533 5.507067409837665 0 0 0
70 1 12.236131448884361 9.550082896326069 4.161387794006924 0 0 0
78 1 17.639145077717302 9.507121733643888 4.104970499537086 0 0 0
409 1 16.238376688504104 10.799692764872031 5.492773082776075 0 0 0
86 1 23.039112066692727 9.52021450442133 4.010790099099949 0 0 0
417 1 21.782372361435204 10.92470853232705 5.408643877218733 0 0 0
94 1 28.59015810418598 9.41900557167468 4.016338748164124 0 0 0
425 1 27.19914701602034 10.859545411656589 5.332112443521741 0 0 0
388 1 2.6393432570955744 13.551794916283145 5.37284870277556 0 0 0
103 1 4.020325305630364 12.109755421722896 4.036256584300151 0 0 0
396 1 8.159268634068344 13.621739564173302 5.337700881527208 0 0 0
111 1 9.497966913534594 12.220820144728439 4.023089104605389 0 0 0
404 1 13.68561678563912 13.513875248936024 5.467205428536328 0 0 0
119 1 14.959941588205588 12.255833517500752 4.06168840521947 0 0 0
127 1 20.33178956909663 12.203214507078085 4.094951365291892 0 0 0
412 1 18.97407981899863 13.517025801182056 5.4589554456327 0 0 0
135 1 25.733086592349267 12.232311751121019 4.06831316049719 0 0 0
420 1 24.48029646314101 13.610066773369871 5.4516486912734425 0 0 0
143 1 31.21449123527765 12.220779801484733 3.9788399751714967 0 0 0
428 1 29.887063954220046 13.589314612903781 5.3486830735760265 0 0 0
102 1 1.2961208160149198 14.878403681756659 3.9816219854866652 0 0 0
151 1 3.997225836291782 17.61371447260446 3.95948573406172 0 0 0
441 1 5.3748221107061855 16.288243167660834 5.305689338172708 0 0 0
110 1 6.71853818657959 14.94292228347017 3.9652743402061543 0 0 0
159 1 9.400016865277902 17.652192637224562 4.125643596107783 0 0 0
449 1 10.875643928864385 16.340473239415847 5.46567174529406 0 0 0
118 1 12.273356561109027 14.841735840112374 4.199059035565905 0 0 0
126 1 17.67562263362459 14.91411826193368 4.042256996009635 0 0 0
167 1 14.893329303612411 17.622997045221705 4.118651990118232 0 0 0
457 1 16.301325134382807 16.242893187890317 5.38113480071495 0 0 0
175 1 20.373782869679868 17.578141749735384 4.143719557462383 0 0 0
134 1 23.046792362597763 14.951401422166747 4.059161725074375 0 0 0
465 1 21.713050310211013 16.241017879107304 5.498292706217674 0 0 0
183 1 25.80671641752409 17.67907637949587 4.055246082638829 0 0 0
142 1 28.478429567866748 14.95052333464373 4.0899162057853635 0 0 0
473 1 27.062975326049155 16.257715706583035 5.43639271626644 0 0 0
433 1 0.046913305324828514 16.361985404083946 5.443199388781077 0 0 0
191 1 31.2093712944568 17.62414987923333 4.0256989445192595 0 0 0
150 1 1.3249961186633077 20.3453660798123 4.07066153933309 0 0 0
436 1 2.6610618473773755 18.93206019530788 5.365988124517331 0 0 0
158 1 6.734859222003203 20.351448720571717 4.016131366610571 0 0 0
444 1 8.121382245354045 19.05576250823606 5.431615436920182 0 0 0
166 1 12.16801324400368 20.283281852040314 4.064434611584769 0 0 0
452 1 13.55708672047431 19.00665559716023 5.457994121895052 0 0 0
174 1 17.707579825032454 20.2696943394082 4.126471805136865 0 0 0
460 1 18.989733202512873 18.842943483965207 5.501007880164726 0 0 0
182 1 23.042295750828895 20.359800211643787 4.070389742729367 0 0 0
468 1 24.363269461565043 18.968855578374747 5.436370383036953 0 0 0
190 1 28.502768079800358 20.403664407152135 3.9788248841789327 0 0 0
476 1 29.828531081980067 18.977897218596038 5.407281056212369 0 0 0
481 1 32.55228050216965 21.670027799168835 5.444696191377729 -1 0 0
199 1 4.055935564983144 23.135724241776515 4.066006685157281 0 0 0
489 1 5.388871167194605 21.716848564668677 5.4578127181054095 0 0 0
207 1 9.509178088073265 23.110134471216785 4.036651979168122 0 0 0
497 1 10.822424722473762 21.672668461123262 5.3941749836013555 0 0 0
215 1 14.871958567636383 23.058487070113998 4.056378156504139 0 0 0
505 1 16.28202617931709 21.664722707462882 5.391072642321446 0 0 0
223 1 20.36420523612894 23.010044752551597 4.108161050216639 0 0 0
513 1 21.706864829932254 21.673126546614668 5.517453336799253 0 0 0
231 1 25.73282174216188 23.112522360216364 4.069720665639936 0 0 0
521 1 27.124439790353044 21.765373805193025 5.4064082223158945 0 0 0
239 1 31.257050722114673 22.943709832760245 3.969491048172818 0 0 0
198 1 1.3196581331629555 25.846112544181096 4.022581229435874 0 0 0
484 1 2.6644896429960006 24.46214551336936 5.315697575002265 0 0 0
206 1 6.819188324385261 25.683342122000955 3.9828129242564128 0 0 0
492 1 8.20299112311857 24.436853088239683 5.402926892439844 0 0 0
214 1 12.277849074698844 25.86092532723017 4.062930118630745 0 0 0
500 1 13.598312151123274 24.52951769713374 5.4435534226988675 0 0 0
222 1 17.718010171650278 25.744227358740496 4.082352406381102 0 0 0
508 1 19.02517507858821 24.417933887115613 5.437033630678227 0 0 0
230 1 23.057528962473764 25.832114124025086 3.921511434457505 0 0 0
516 1 24.35250935021627 24.5120716916469 5.427935388132684 0 0 0
238 1 28.55466932997937 25.651628954257895 4.05226037534598 0 0 0
524 1 29.94295836374693 24.352466431980552 5.3417792583170405 0 0 0
247 1 4.042935955044653 28.567992825420788 4.136720973163277 0 0 0
537 1 5.441815176303551 27.077299610766175 5.346814278856907 0 0 0
255 1 9.472089536845438 28.586007281215053 4.113775762958888 0 0 0
545 1 10.893960375409488 27.17751182091977 5.395922044637002 0 0 0
263 1 14.936227746034023 28.512144397286487 3.9780468508749363 0 0 0
553 1 16.27465954010118 27.163914562395195 5.32135681037494 0 0 0
271 1 20.45271373709419 28.47610752732567 4.095935269587976 0 0 0
561 1 21.77936513547285 27.118241473791272 5.404199606906655 0 0 0
279 1 25.84352039397446 28.503898850687442 4.015906706729607 0 0 0
569 1 27.157686556321703 27.088206924115063 5.3455174610111875 0 0 0
529 1 0.019483069373450235 27.198880989929783 5.334038511717719 0 0 0
287 1 31.27831162813777 28.54632428490263 4.047913033163079 0 0 0
246 1 1.3012511783742344 31.311431730523594 4.088696141537067 0 0 0
532 1 2.6142236960967167 29.87144330818753 5.47881443661948 0 0 0
254 1 6.829122543443818 31.30542306412173 4.067137244746047 0 0 0
540 1 8.132653566811157 29.949400202566622 5.45240005740845 0 0 0
305 1 10.862798220972632 0.13331896895476802 5.464174485381691 0 0 0
262 1 12.178052001134466 31.301105111070896 4.109429517139808 0 0 0
548 1 13.613927203373377 29.87471146353246 5.357499597369858 0 0 0
270 1 17.701179794511607 31.281072332722754 3.9950239454352556 0 0 0
556 1 19.042043004205027 29.840509320871732 5.3703677231289655 0 0 0
321 1 21.770767184365777 32.57241483300752 5.488811929982692 0 -1 0
278 1 23.110692534690557 31.195207336113704 4.051266124669673 0 0 0
564 1 24.445161983548445 29.862051720022418 5.383339384703255 0 0 0
286 1 28.520503208138237 31.230744872561292 4.0455422737033695 0 0 0
572 1 29.90517334356054 29.93274247003466 5.361573594893697 0 0 0
290 1 32.47776192354963 2.7583870384703237 8.113203334546402 -1 0 0
293 1 1.2825110411502387 1.4038408781746816 6.716771634168763 0 0 0
295 1 4.07606227853155 1.4574790082923301 9.494951905415613 0 0 0
298 1 5.407327851262237 2.7358151725167907 8.119023895758222 0 0 0
301 1 6.709978573005504 1.3193200438239823 6.803636750235986 0 0 0
303 1 9.454913129592509 1.3325365879812747 9.575951356309087 0 0 0
306 1 10.81005870246791 2.6765324363414935 8.148750931168214 0 0 0
307 1 13.6296155161624 0.053528977559068484 8.048767500574906 0 0 0
309 1 12.191067982028965 1.4165236841761384 6.792464407044616 0 0 0
311 1 14.926965284172516 1.286299872010547 9.547636306966977 0 0 0
314 1 16.21976888293618 2.7215379280174865 8.11267160261249 0 0 0
317 1 17.58045038838227 1.3663873837442564 6.84251151682162 0 0 0
315 1 19.00510568255493 0.024511812806250394 8.085145086568716 0 0 0
319 1 20.446298264431633 1.2970581448297254 9.412311419250086 0 0 0
322 1 21.74970632566616 2.760004776703948 8.14110710515266 0 0 0
325 1 23.171051363987495 1.433304747063312 6.791096454156532 0 0 0
323 1 24.442410540361315 0.03132131466590174 8.183376320058718 0 0 0
327 1 25.88689870976362 1.4059913177729924 9.45321009393213 0 0 0
330 1 27.211125392343565 2.8181233492843307 8.17391688520314 0 0 0
333 1 28.48208745715305 1.4644648360643766 6.7776257443069525 0 0 0
331 1 29.84077683754655 0.06790210370432279 8.114913227492142 0 0 0
335 1 31.144749758274518 1.3826784852458187 9.53001635212892 0 0 0
294 1 1.2507146579780215 4.101530777365799 9.406827573513077 0 0 0
339 1 2.6457075543881534 5.426276202500694 8.08163499399793 0 0 0
296 1 4.066316859225462 4.104353264211693 6.7973111354234685 0 0 0
302 1 6.759560731873271 4.05881652003841 9.457595254426748 0 0 0
347 1 8.140406262047593 5.4335534647443415 8.1869499660337 0 0 0
304 1 9.481824613124125 4.061523182973665 6.810772515153076 0 0 0
310 1 12.186545530926901 4.0308339946324745 9.478868209345254 0 0 0
355 1 13.551657624903017 5.485348301136133 8.226400201767795 0 0 0
312 1 14.845788925438129 4.07360146504049 6.811920538986284 0 0 0
318 1 17.654468605352957 4.044237184806576 9.514813821557777 0 0 0
320 1 20.34942158291142 4.168874418583107 6.847061380201758 0 0 0
363 1 19.007575156237877 5.427981933557515 8.236410192182221 0 0 0
326 1 23.12035363523906 4.121161492130146 9.49898655993739 0 0 0
328 1 25.851503170408083 4.164716680982488 6.826747806649284 0 0 0
371 1 24.437856531363998 5.531335910817885 8.108820085625252 0 0 0
334 1 28.548543636188448 4.199222976178987 9.527945325781321 0 0 0
336 1 31.180936376462313 4.109629069860244 6.648106168843786 0 0 0
379 1 29.951297506766206 5.515305327968063 8.121621906890386 0 0 0
338 1 0.09053026513935358 8.176286672818966 8.130195132374569 0 0 0
341 1 1.3713471573459866 6.751403391088224 6.6711687839730756 0 0 0
343 1 3.9709719053007118 6.748184630696437 9.387675630725049 0 0 0
346 1 5.378269080855488 8.170192044909907 8.07049451947318 0 0 0
349 1 6.835092274257381 6.730124617161381 6.801279410945456 0 0 0
351 1 9.622067232933494 6.758355523009722 9.441566916454924 0 0 0
354 1 10.867949446392823 8.155561276236531 8.097187059982927 0 0 0
357 1 12.174870561697787 6.751692432087755 6.85226183574577 0 0 0
359 1 14.91764722290589 6.7757859657994866 9.569075864790673 0 0 0
362 1 16.38083054859682 8.125223408148784 8.197320669969503 0 0 0
365 1 17.72138270777782 6.8490112829069725 6.8318906468150695 0 0 0
367 1 20.387935174092995 6.842330574769043 9.604359896004368 0 0 0
370 1 21.751746229766763 8.107456830387065 8.13398999468751 0 0 0
373 1 23.075404671395074 6.756527962518646 6.794963798157425 0 0 0
375 1 25.78564430470884 6.913418992308008 9.515078551448013 0 0 0
378 1 27.129213922056483 8.217750263361275 8.16077595775817 0 0 0
381 1 28.455813283566286 6.855257488591776 6.82721930861385 0 0 0
383 1 31.24321109032623 6.8553537029855205 9.497730469011962 0 0 0
342 1 1.4213831390168954 9.521155088461589 9.52375248604609 0 0 0
387 1 2.634546172806665 10.879619649819018 8.116043371937414 0 0 0
344 1 4.028604677610269 9.561861038326532 6.785936896028916 0 0 0
350 1 6.752205057060817 9.500172755393791 9.49401108474339 0 0 0
395 1 8.101052103828055 10.899235001798138 8.060374874722719 0 0 0
352 1 9.466974482540667 9.466256311000762 6.837940230512432 0 0 0
358 1 12.189915147529506 9.516745870933665 9.488903270629956 0 0 0
403 1 13.63969320987711 10.87926857433017 8.232655041158273 0 0 0
360 1 14.896387957550818 9.452288598370801 6.879351179447316 0 0 0
366 1 17.7169349241074 9.546419169842155 9.576504759371668 0 0 0
368 1 20.48982018264393 9.60038403834477 6.78232009800104 0 0 0
411 1 19.05916522853501 10.84816453950189 8.192919092623768 0 0 0
374 1 23.14634590026091 9.53515491147672 9.537105102916472 0 0 0
376 1 25.77864857246483 9.520554203234177 6.733433211673615 0 0 0
419 1 24.532033419392132 10.855422340481844 8.202919014558686 0 0 0
382 1 28.526518191663712 9.538887735709743 9.567292740502328 0 0 0
384 1 31.216493469683584 9.499693161072797 6.740272476388436 0 0 0
427 1 29.92145568317699 10.823538307891312 8.162322192587506 0 0 0
389 1 1.2676334886978353 12.249845615547956 6.750291298215009 0 0 0
391 1 3.960181204384508 12.19264078577076 9.569856481562494 0 0 0
394 1 5.402838057264039 13.52985674365111 8.13109908811814 0 0 0
397 1 6.754788302610308 12.275171264745989 6.701888832070716 0 0 0
399 1 9.455069111838393 12.175046632692341 9.515729939094959 0 0 0
402 1 10.791319384187652 13.56818588537259 8.17707252011347 0 0 0
405 1 12.258218810610952 12.252429470027108 6.827008936415921 0 0 0
407 1 15.000185488560648 12.246341408044435 9.494306644128574 0 0 0
410 1 16.337956349872965 13.582542362210477 8.184796814321256 0 0 0
413 1 17.661783418567534 12.149801929339182 6.797835161751286 0 0 0
415 1 20.326551671720264 12.22699104767293 9.557391244411983 0 0 0
418 1 21.662344356475938 13.556513442346878 8.148052726686004 0 0 0
421 1 23.124987215541715 12.226206292893089 6.759615448502545 0 0 0
423 1 25.811785028387757 12.176095675564019 9.583749679557101 0 0 0
426 1 27.243170905576278 13.505500948228452 8.228378655816371 0 0 0
429 1 28.54186390688197 12.099969646609203 6.781304241948183 0 0 0
386 1 0.013428770411749724 13.693300218965506 8.097805405965 0 0 0
431 1 31.259024198616135 12.266554726398029 9.464902971441527 0 0 0
390 1 1.258513732391082 14.939075307079912 9.56982552345495 0 0 0
435 1 2.618275940588866 16.19479838960634 8.145695581970083 0 0 0
437 1 1.3776756340921865 17.696233210534988 6.849082363307307 0 0 0
392 1 4.052379572964281 14.857846248385343 6.724099344502092 0 0 0
439 1 4.019829913568887 17.664721819318626 9.412198147984993 0 0 0
398 1 6.7957430328954835 14.962324372734484 9.453533218068966 0 0 0
443 1 8.104430348109618 16.27176625117194 8.093780324668979 0 0 0
445 1 6.800550066701081 17.60060427705645 6.707835862282971 0 0 0
400 1 9.550183170552911 14.928073304947182 6.841899972733452 0 0 0
447 1 9.491983559615315 17.525635774584263 9.47010404739734 0 0 0
406 1 12.2107476157857 14.975169883696546 9.49758238985487 0 0 0
451 1 13.531857239971389 16.298165320763065 8.115670713369925 0 0 0
453 1 12.268264057406116 17.648625721326084 6.836354561334546 0 0 0
408 1 14.966500065900975 14.921172305142377 6.837444629822971 0 0 0
414 1 17.585767695452613 15.027339206801859 9.584531124996674 0 0 0
455 1 14.827758769268172 17.64857593225661 9.384121402889242 0 0 0
461 1 17.632495626694066 17.53248281902015 6.831424520347524 0 0 0
416 1 20.281869236159324 14.887611296598996 6.810767714582754 0 0 0
459 1 19.041796757196487 16.248601115096765 8.198910941931763 0 0 0