LAMMPS data file via write_data, version 19 Nov 2024, timestep = 60100, units = metal

1728 atoms
1 atom types

-0.024519625773034903 32.6045196257735 xlo xhi
-0.024519625773034903 32.6045196257735 ylo yhi
-0.024519625773034903 32.6045196257735 zlo zhi

Atom Type Labels

1 Si

Masses

1 28.0855

Atoms # atomic

2 1 0.0762763821620547 2.6662276436691945 2.680282555384271 0 0 0
3 1 2.69423475561792 0.040189988689489954 2.6235371867925847 0 0 0
5 1 1.407030349166076 1.389621539355824 1.2490889160525847 0 0 0
9 1 5.406554376730658 0.08377890742101658 0.028582476383938765 0 0 0
10 1 5.363824953965725 2.7601465086312578 2.652470593613565 0 0 0
12 1 8.252195523812036 2.651214075116718 0.03607333864220582 0 0 0
13 1 6.739796236639183 1.4373508734009048 1.3638136707230757 0 0 0
18 1 10.952382096048245 2.663901744176821 2.671336831697418 0 0 0
1187 1 24.511325346174196 16.147489112645196 13.556584766262588 0 0 0
21 1 12.234758971010853 1.3962463901642277 1.2791538415238881 0 0 0
26 1 16.267083036706794 2.835195150243826 2.628009693579272 0 0 0
29 1 17.62201345424812 1.535691668170152 1.2156350907969962 0 0 0
27 1 18.94568815880527 0.1744934964326015 2.571619110579557 0 0 0
313 1 16.34767450689157 0.0682020417724658 10.760857061775065 0 0 0
386 1 0.05530817924562825 13.642078499798007 13.47210934912506 0 0 0
34 1 21.72288097153525 2.7342109315022336 2.6826074335113415 0 0 0
37 1 23.05143166407459 1.3571438680034331 1.3661707907513465 0 0 0
36 1 24.510566690994292 2.696014711690255 0.001003735314052114 0 0 0
42 1 27.259618915066554 2.681637761257892 2.743194373599997 0 0 0
45 1 28.53987780123771 1.300792950030178 1.332595061737257 0 0 0
44 1 29.921654183355884 2.751152761200965 -0.0075801991095651704 0 0 0
51 1 2.7767212705670214 5.472152816038429 2.6790892591527324 0 0 0
8 1 3.9931804275980833 4.139514137806485 1.2028799518714863 0 0 0
1153 1 0.03806157320533444 16.28510400474124 10.843829674715007 0 0 0
59 1 8.078295655104455 5.413744107550591 2.719608535619405 0 0 0
16 1 9.492948611580587 3.99722645397674 1.4320086478197809 0 0 0
65 1 10.928146359909006 5.337991733323962 -0.016324976711001776 0 0 0
67 1 13.635802715318134 5.414789232047465 2.7558819973414566 0 0 0
24 1 14.920774385446743 4.078547936643313 1.2673545735464768 0 0 0
187 1 29.886665702298252 0.004943748245402446 8.138355073031923 0 0 0
32 1 20.29711128636817 4.017370047943713 1.4883813221063082 0 0 0
75 1 18.94659895393447 5.476548790918099 2.7355039817484403 0 0 0
81 1 21.6590056436866 5.503793551939163 0.1509977944213908 0 0 0
40 1 25.905650836597005 4.011799737657154 1.415526879388556 0 0 0
83 1 24.540821331491422 5.432317353868394 2.6706536296062144 0 0 0
145 1 -0.007124734050911741 0.09822675609726872 5.3943527347868105 0 0 0
48 1 31.271430626136507 4.047364606424196 1.38802485079483 0 0 0
91 1 29.79480702253557 5.375889772798327 2.582950824660041 0 0 0
169 1 16.290692510125897 0.0036949402240864515 5.352674264025615 0 0 0
53 1 1.3813315772744146 6.836830035180742 1.3727103555568738 0 0 0
56 1 4.131015840255357 9.420979906033383 1.3882398301157988 0 0 0
58 1 5.464193562370786 8.038612296902059 2.658347760097562 0 0 0
43 1 29.93861058315327 0.011516079309529914 2.7637081335791556 0 0 0
61 1 6.8223891924341915 6.733139219625964 1.2533243536181329 0 0 0
64 1 9.532070121085107 9.461421589419613 1.325307109162964 0 0 0
66 1 10.946516459955319 8.096823995567119 2.6048696062143017 0 0 0
68 1 13.591428819623303 8.130701877159016 -0.0158444304828584 0 0 0
69 1 12.360048051291622 6.665965432454085 1.2732043211308135 0 0 0
72 1 14.853715642976328 9.50604065309785 1.3576668881653418 0 0 0
74 1 16.19203058074753 8.12454764667805 2.633250219206168 0 0 0
77 1 17.622045035921236 6.709614802973352 1.2917544101387213 0 0 0
80 1 20.30245302398898 9.534137140951135 1.3113370941564995 0 0 0
82 1 21.738088124659342 8.28056704813399 2.7253846012578955 0 0 0
85 1 23.17906002522735 6.909967630191365 1.3456081813188017 0 0 0
88 1 25.670328985583275 9.504071077794494 1.316270574257451 0 0 0
90 1 27.112895826934285 8.241592286752619 2.6868988728833587 0 0 0
93 1 28.452745122811226 6.812398482793251 1.3439529042732474 0 0 0
50 1 32.58522531697911 8.020436241677386 2.7700643575790234 -1 0 0
92 1 29.774663583189803 8.153524660253538 0.09724665482468374 0 0 0
96 1 31.282212285409827 9.460762324354969 1.397677730316655 0 0 0
99 1 2.753732769967805 10.885787434518608 2.799095812200545 0 0 0
101 1 1.4417481701196335 12.29926233855442 1.2552281714468694 0 0 0
105 1 5.417137514293338 10.762487857206784 -0.010721019432814383 0 0 0
107 1 8.193552604827053 10.784127624494872 2.7392457008173845 0 0 0
109 1 6.850304559997229 12.126598281815873 1.33387212194089 0 0 0
41 1 27.09327938547442 0.035553430046078915 0.024455347790411062 0 0 0
115 1 13.516452149339068 10.76807618927908 2.7690046413447615 0 0 0
117 1 12.175653278183447 12.234548220925872 1.4280414858307 0 0 0
121 1 16.200229442256344 10.867229754049886 0.008584756056161297 0 0 0
125 1 17.62151118747316 12.134033118443925 1.3790567422177953 0 0 0
123 1 18.957053762652357 10.764250737063884 2.8371561177108298 0 0 0
133 1 23.173614990332577 12.235029905490263 1.2761595957070673 0 0 0
131 1 24.4298503920283 10.903899042362813 2.702359595374898 0 0 0
141 1 28.569531557731366 12.164141103223846 1.3551277551583487 0 0 0
139 1 29.897934460147738 10.818588215095572 2.7101797820129203 0 0 0
35 1 24.4305739385213 -0.010270724758171923 2.740450923048525 0 0 0
867 1 2.748785692777964 16.275982065058972 2.7766033827920715 0 0 0
104 1 4.103426643485333 14.931787435259972 1.3822705856841562 0 0 0
106 1 5.461638615433049 13.553067624421308 2.6608391631360244 0 0 0
426 1 27.135116812975323 13.485628251688468 13.56425432699404 0 0 0
112 1 9.433723136683172 15.012142594917659 1.3544784618303238 0 0 0
114 1 10.897930019298787 13.644299059259776 2.6780134140098406 0 0 0
120 1 14.888985254452676 14.997547948874322 1.3212459561098804 0 0 0
122 1 16.241712771874845 13.481127375245796 2.669848148558784 0 0 0
124 1 19.007193174036022 13.530780406703725 0.0028411446351379772 0 0 0
128 1 20.30344692770435 14.91190534762889 1.3615255254973604 0 0 0
891 1 18.986058603067615 16.246398104686868 2.6952607634766492 0 0 0
130 1 21.70528557383849 13.558323171084316 2.706477895160577 0 0 0
136 1 25.842226707233355 14.925555493717361 1.2121059073177989 0 0 0
138 1 27.185280243587304 13.619679770304135 2.672127263414048 0 0 0
98 1 -0.007846646564033222 13.473454375630132 2.62471267024458 0 0 0
144 1 31.271075230850755 14.83412070084781 1.2774872847304357 0 0 0
907 1 29.876971648572262 16.25558717077193 2.5921780951006634 0 0 0
148 1 2.7417225156312313 2.6463311629581154 5.407315736715969 0 0 0
7 1 4.005411062249672 1.324429939152078 4.012957795579325 0 0 0
430 1 28.48282774325737 14.99347526768785 15.027278474762486 0 0 0
156 1 8.22846372131036 2.6584974250820577 5.313069989505696 0 0 0
15 1 9.593651898835356 1.3430637331495043 4.014261486205273 0 0 0
164 1 13.657686019300597 2.6604871963495125 5.493276252484159 0 0 0
23 1 14.91061848571927 1.4494913723359377 3.894901152081685 0 0 0
31 1 20.289923591226653 1.4481371875341877 3.99384103049732 0 0 0
172 1 19.03691872409485 2.761636799515341 5.400031677112867 0 0 0
177 1 21.729044629975302 0.09108780895182624 5.333035576284084 0 0 0
39 1 25.834500176095865 1.4137470221642419 4.059625873455159 0 0 0
180 1 24.419881571036782 2.789712350330096 5.370224279743752 0 0 0
185 1 27.141048947409 0.02647647934502659 5.4781136275663975 0 0 0
47 1 31.27122670204676 1.4652484181251693 4.076123147768059 0 0 0
188 1 29.94547458562921 2.752626216457102 5.430663222216637 0 0 0
6 1 1.4304163356223574 4.1057003557667535 3.9610049454942917 0 0 0
201 1 5.353833975406704 5.336958860466401 5.388675595919545 0 0 0
14 1 6.748075189192552 4.011862545784391 4.074045487216455 0 0 0
209 1 10.892030099186739 5.458615113110336 5.378260311688426 0 0 0
22 1 12.27402430145833 4.021403420901536 4.155075541677665 0 0 0
30 1 17.632772853291215 4.129875679328712 4.09394255800615 0 0 0
217 1 16.281738480085274 5.509844358499883 5.479593866903954 0 0 0
38 1 23.033804910334084 4.158325062720555 4.0146432654586945 0 0 0
225 1 21.6916385960412 5.532725286870688 5.336702717537968 0 0 0
46 1 28.575936487007777 4.120261779536051 4.101896545527985 0 0 0
233 1 27.131500921312558 5.609897094068338 5.40044340073341 0 0 0
193 1 32.59700510034537 5.384441562864899 5.31602011594486 -1 0 0
54 1 1.413389479559361 9.467583127126481 4.1389039440780255 0 0 0
196 1 2.794902227669884 8.119541050037029 5.459433962473267 0 0 0
55 1 4.158222988699462 6.735535418882931 4.047257113419627 0 0 0
62 1 6.7830057288517445 9.460212888813956 4.097803922273243 0 0 0
204 1 8.22638916547272 8.176644905299652 5.401776263292023 0 0 0
63 1 9.593025274448364 6.80418848450079 3.978004498639257 0 0 0
70 1 12.220797432302206 9.418078705070172 4.142323060604422 0 0 0
212 1 13.561969532468643 8.052458028442187 5.5281570321210225 0 0 0
71 1 14.898286180172356 6.771679841355136 4.076141500439916 0 0 0
78 1 17.502358976045432 9.459222386950396 4.02654924889155 0 0 0
79 1 20.341680748692863 6.93863727416807 3.9597558713066583 0 0 0
220 1 18.92015453213263 8.256673293348491 5.316982449729727 0 0 0
86 1 23.11124025677726 9.593211441348492 3.9742462284463667 0 0 0
87 1 25.741852218554715 6.947416113626382 4.0459270342407505 0 0 0
228 1 24.368776442216955 8.239181934532125 5.414412887518619 0 0 0
94 1 28.51941317572541 9.46802401228553 4.079615920029005 0 0 0
95 1 31.147840144563524 6.737027450518709 3.9552665561112783 0 0 0
236 1 29.85457780286927 8.062548374693527 5.3773037653685165 0 0 0
103 1 4.188183826930362 12.354250790114207 4.04370732991685 0 0 0
249 1 5.395609545589786 10.862099281759722 5.402152639704508 0 0 0
111 1 9.496532195770795 12.272008306042489 4.054115886225497 0 0 0
257 1 10.853385481126965 10.89944176148179 5.379945142786835 0 0 0
119 1 14.950914789171978 12.20091115537649 4.142196462245585 0 0 0
265 1 16.27547520515442 10.847873296611528 5.466771533983716 0 0 0
127 1 20.324872282179534 12.156743702447693 4.041132779516591 0 0 0
273 1 21.726153058797447 10.856440123489376 5.4121853711494055 0 0 0
135 1 25.711739150312393 12.235635024590072 4.014053879037971 0 0 0
281 1 27.189903577277814 10.871835959996064 5.431428425634636 0 0 0
241 1 0.07958805667333735 10.748546657441537 5.4970776122496625 0 0 0
143 1 31.393932761331296 12.124395336334567 4.1173295004842165 0 0 0
102 1 1.320434040202063 14.89302730944639 4.073758779109281 0 0 0
244 1 2.759579900488754 13.611453936720673 5.474291804403314 0 0 0
110 1 6.676347734213573 14.97159497300626 3.9910831553961867 0 0 0
252 1 8.10249854490675 13.65382059462386 5.4696599358285365 0 0 0
19 1 13.53164335774591 0.028030628683666237 2.6196394984536004 0 0 0
118 1 12.062933930786546 15.049135391816742 4.056713427431024 0 0 0
260 1 13.494915738619513 13.702445382353597 5.380294431267084 0 0 0
126 1 17.553773546098995 14.958908702092401 4.052411002817504 0 0 0
268 1 18.89721408845402 13.577503298007038 5.322879977141037 0 0 0
134 1 23.1229373191251 14.936058346833825 4.0923168518190876 0 0 0
1041 1 21.66217387483443 16.24338053687918 5.394386405022123 0 0 0
276 1 24.423712198920967 13.507929436157072 5.418566788615728 0 0 0
418 1 21.742782184720436 13.50932876068622 13.486362393122898 0 0 0
142 1 28.519816546337914 14.934077189944109 4.072734709485504 0 0 0
284 1 30.005869752969538 13.521415526968875 5.33176123974592 0 0 0
422 1 22.97863494111472 14.818927367688538 14.924574994177053 0 0 0
147 1 2.6938822599724137 0.024945445321194342 8.158314322081988 0 0 0
149 1 1.2798154760982867 1.3543655453900147 6.7431376479981395 0 0 0
151 1 4.015284421603045 1.3432729820702325 9.436246743183244 0 0 0
154 1 5.508520530591153 2.6440520928785003 8.153177783280759 0 0 0
157 1 6.890125878704357 1.2000289039124494 6.6994467752008235 0 0 0
159 1 9.491167498072683 1.3724113731808183 9.631192409704367 0 0 0
162 1 10.847636080262621 2.6390394277846734 8.097273325999616 0 0 0
165 1 12.217342537140631 1.2842536494651386 6.765954887160235 0 0 0
167 1 14.955100469465032 1.4150358843518256 9.414267664739544 0 0 0
170 1 16.34774950514175 2.745999953475257 8.107914945716335 0 0 0
173 1 17.687347704984813 1.3204659013912312 6.662787777006401 0 0 0
171 1 19.062330728132984 -0.0014122633001294018 8.079703977110821 0 0 0
175 1 20.488503972334918 1.5674258431869954 9.325820836472134 0 0 0
178 1 21.760377776864512 2.8949148769392674 7.97096095285206 0 0 0
181 1 23.111128991978628 1.3274859860890853 6.706172007896291 0 0 0
179 1 24.470119360511 -0.003374417646403088 8.117617278593016 0 0 0
183 1 25.927720431982312 1.3581074339375465 9.400851968546384 0 0 0
186 1 27.18892083650031 2.766900042872453 8.064348904554166 0 0 0
189 1 28.514958380390183 1.438970729748985 6.688463283650864 0 0 0
146 1 32.56229814236985 2.698227305945979 8.119267138401803 -1 0 0
191 1 31.257261487095086 1.2966291202839564 9.435824497415569 0 0 0
150 1 1.2770318096833582 4.051465572810268 9.502387372416239 0 0 0
195 1 2.7238614949839723 5.330971663204046 8.108819802485108 0 0 0
152 1 4.094396588971788 3.941879273944721 6.755847449141545 0 0 0
158 1 6.711960832625495 3.8720999681390245 9.62042246292312 0 0 0
203 1 8.044317103036743 5.2737859976354775 8.132356070475815 0 0 0
160 1 9.528616842903753 4.0213325245767075 6.730440145808255 0 0 0
166 1 12.27836286826249 4.08138082839555 9.604535919647876 0 0 0
211 1 13.584223114021782 5.394045327981708 8.115886958949183 0 0 0
168 1 14.951237316819297 4.135818216331525 6.857477014626686 0 0 0
174 1 17.640907096509494 4.118601877817209 9.440135655123475 0 0 0
176 1 20.31155419390699 4.20425282655468 6.708841273080025 0 0 0
219 1 19.000582168725952 5.482443237595715 8.206292782817492 0 0 0
182 1 23.127127464632174 4.165677146204144 9.473611643307537 0 0 0
184 1 25.841764415619267 4.084411244663745 6.682784786689323 0 0 0
227 1 24.485654964304405 5.465035126161884 8.047311024484134 0 0 0
190 1 28.520281713078237 4.174332365571371 9.565141681897188 0 0 0
192 1 31.217693409436414 4.115512902506453 6.7507592643001875 0 0 0
235 1 29.92063626553565 5.434374059375587 8.209673167619224 0 0 0
194 1 0.06946367042621128 7.934984316278095 8.165624523072136 0 0 0
197 1 1.461181107699354 6.6206738184188705 6.7195704961197915 0 0 0
198 1 1.3166892559277334 9.457564662793049 9.452438044374949 0 0 0
199 1 4.0240174926717796 6.8144053021122435 9.372814201185832 0 0 0
200 1 4.1409025066890806 9.495572562593653 6.740984353893536 0 0 0
202 1 5.515802612837035 8.132245153455129 8.08770519866094 0 0 0
205 1 6.801719727935208 6.774596030859344 6.695239063638946 0 0 0
206 1 6.7494497131303035 9.526633146871315 9.574096633347827 0 0 0
207 1 9.475596182828134 6.755312728816944 9.52623566853025 0 0 0
208 1 9.545883901358565 9.583379123567573 6.846408545747052 0 0 0
210 1 10.802682161107287 8.125818611969384 8.134651184554079 0 0 0
213 1 12.21229039382027 6.661966342286202 6.7579800624961655 0 0 0
214 1 12.101222387654953 9.439691920035468 9.563614290851444 0 0 0
215 1 14.886726600777447 6.760047784557407 9.629916245220045 0 0 0
216 1 14.83511508620891 9.467093797194353 6.864879020836799 0 0 0
218 1 16.105935246130592 8.176218954917942 8.28312327483513 0 0 0
221 1 17.72032110077132 6.930085798444241 6.877288552861687 0 0 0
222 1 17.633453829689252 9.430735809320568 9.532457667596503 0 0 0
223 1 20.402547342457662 6.784108714849401 9.535726318231971 0 0 0
224 1 20.254644911263995 9.530819591306408 6.726818217763159 0 0 0
226 1 21.678663172009085 8.219791138458913 8.05925868179552 0 0 0
229 1 23.075564385003375 6.888459679724946 6.644529788296843 0 0 0
230 1 23.174740067739933 9.439811165310257 9.440723282436773 0 0 0
231 1 25.828068256272914 6.741799089914077 9.528042008976144 0 0 0
232 1 25.952483452154716 9.525033685831302 6.733728893790298 0 0 0
234 1 27.191413335450136 8.165650881054706 8.233148487711777 0 0 0
237 1 28.60614276541592 6.806928927060584 6.83825998960834 0 0 0
238 1 28.527179580217645 9.493917955156093 9.609967696436673 0 0 0
239 1 31.194910560107765 6.8458521939586126 9.558741540524574 0 0 0
240 1 31.32557574208225 9.284056649131175 6.886467076915355 0 0 0
243 1 2.759250914970591 10.796393036616903 8.174363413170322 0 0 0
245 1 1.4017707609208256 12.246071624032563 6.831256139585289 0 0 0
247 1 4.0390579291946676 12.199962426646511 9.58960460011215 0 0 0
251 1 8.121292233778833 10.867916567176595 8.216331930405737 0 0 0
253 1 6.85062176721079 12.127272398054066 6.809150396343089 0 0 0
255 1 9.463663913793383 12.269368312227177 9.395033171596385 0 0 0
259 1 13.508088360663693 10.868772783890039 8.190234896695342 0 0 0
261 1 12.277943523679392 12.259873348734585 6.822628700674946 0 0 0
263 1 14.923194605937354 12.109863631744885 9.583525214835323 0 0 0
269 1 17.61759887199162 12.234899235511618 6.872377824494617 0 0 0
267 1 18.91287829674433 10.868806168326293 8.127388528813032 0 0 0
271 1 20.325222733848104 12.24843387265704 9.481921898606892 0 0 0
277 1 23.06916868994776 12.247615707126156 6.853282162265333 0 0 0
275 1 24.539874281092583 10.85948267770761 8.110816004149173 0 0 0
279 1 25.90018619971466 12.279609861859708 9.533627096189035 0 0 0
285 1 28.622921718171085 12.245928506235275 6.779461437366918 0 0 0
283 1 29.901778402919724 10.826098125115681 8.264858577820306 0 0 0
287 1 31.202237377190603 12.296797158173819 9.568746168813508 0 0 0
1011 1 2.6395951049313977 16.191558724626045 8.16226974594527 0 0 0
242 1 32.508814441065 13.522265520520525 8.194356433952741 -1 0 0
246 1 1.2405254269167045 14.908538921644574 9.486248770002922 0 0 0
248 1 4.149980173355817 14.883782209722915 6.810107161672344 0 0 0
250 1 5.4865175334960075 13.477094617447445 8.22299057201762 0 0 0
254 1 6.716507890216764 14.991944595162998 9.46959749430233 0 0 0
256 1 9.444106982083769 14.955919974230792 6.864498484644617 0 0 0
258 1 10.9477659409225 13.661335327181614 8.170049861403763 0 0 0
556 1 18.887487651182884 13.585940286073807 16.23898116697179 0 0 0
262 1 12.243900204703776 14.989409579700487 9.522115499249596 0 0 0
264 1 14.900606991039371 15.03454139216401 6.801973107682462 0 0 0
266 1 16.13621653158997 13.62173667800763 8.148724966217898 0 0 0
270 1 17.47515782678985 14.947473614607754 9.46455454126099 0 0 0
1035 1 19.04823929040809 16.242932629783745 8.175865059215909 0 0 0
272 1 20.338007530800954 14.957573978243556 6.736580908451193 0 0 0
274 1 21.61993410879031 13.636313485662358 8.229714601225906 0 0 0
278 1 23.11655568646188 14.888415580473946 9.541583804836511 0 0 0
1179 1 18.975692229230113 16.242722530857 13.527132559824247 0 0 0
280 1 25.817814541111623 14.916075624585297 6.7523604274524684 0 0 0
282 1 27.30693345308162 13.64785978446394 8.124406637361353 0 0 0
286 1 28.62381732717562 15.0091441541811 9.582384713884863 0 0 0
1051 1 29.907055887865706 16.199782118180284 8.158138216723772 0 0 0
288 1 31.284227841174886 14.922941608910493 6.74726331348143 0 0 0
410 1 16.203045036296352 13.54089446091446 13.655883682885097 0 0 0
292 1 2.7141550215539434 2.677479870985865 10.866082742863043 0 0 0
293 1 1.2958935626006254 1.2624692916011284 12.156859278919917 0 0 0
297 1 5.4085541504434556 0.0030469899157631944 10.839774522628547 0 0 0
300 1 8.035158698735575 2.6243922622674694 10.951027845462681 0 0 0
301 1 6.749692915052704 1.2482350783683693 12.376348749098492 0 0 0
308 1 13.651408395431437 2.749360401379677 10.856907351638009 0 0 0
309 1 12.245925158242985 1.2890818907885553 12.300256357294035 0 0 0
317 1 17.793780734409363 1.3063696765587511 12.195211965156954 0 0 0
316 1 19.07320991466225 2.798830769693717 10.742297434823898 0 0 0
321 1 21.79211808347535 0.14901076760229895 10.77595244665137 0 0 0
325 1 23.116610975227868 1.3800794958278546 12.263435529646744 0 0 0
324 1 24.48120231318473 2.715957338864771 10.778481399027243 0 0 0
333 1 28.498684340693863 1.3457638768321178 12.070347001080044 0 0 0
332 1 29.9281054863585 2.7683518796522115 10.799102877547382 0 0 0
337 1 32.50712368690528 5.4664040802053195 10.782802937139117 -1 0 0
296 1 4.076755609862185 3.909309454832169 12.182193262830479 0 0 0
345 1 5.291833929815292 5.444399306013769 10.890222128616562 0 0 0
304 1 9.443960245851802 3.9153061171905055 12.277703036235136 0 0 0
353 1 10.701038045819852 5.381111819767147 10.846202924843793 0 0 0
312 1 15.048315855045441 3.996897641994643 12.274295540690865 0 0 0
361 1 16.340087757050355 5.397129157706341 10.898555585655918 0 0 0
320 1 20.452858372705702 4.147722251928711 12.221697943518967 0 0 0
369 1 21.790810834452987 5.456172528248907 10.853333328697845 0 0 0
328 1 25.807047577956716 4.1069225891488825 12.198186516110878 0 0 0
377 1 27.235224247792473 5.42932232865489 10.905535632127778 0 0 0
336 1 31.257146869866496 4.06344442900757 12.180809219015638 0 0 0
340 1 2.715343610324545 8.07793821895107 10.921669317848576 0 0 0
341 1 1.3525893576621608 6.606849445786712 12.210044637132464 0 0 0
344 1 4.042693126631538 9.418763513614055 12.25556645825752 0 0 0
348 1 8.179293468914047 8.185776880391298 10.855895201363893 0 0 0
349 1 6.707900542973639 6.8468311912894695 12.179493428440509 0 0 0
352 1 9.612676550475268 9.557436397036959 12.260563483068456 0 0 0
356 1 13.45921716629765 8.11332184924863 11.036011522095814 0 0 0
357 1 12.21672168563284 6.619688706009608 12.28755189524065 0 0 0
360 1 14.970471393405115 9.42082249575026 12.300035422159485 0 0 0
365 1 17.809933977129585 6.755914398219652 12.186250931095119 0 0 0
364 1 19.062069534760777 8.126629876717814 10.836796778262894 0 0 0
368 1 20.360702529581427 9.477230758339719 12.305426215003287 0 0 0
373 1 23.174714191575283 6.778540563586714 12.235523850728153 0 0 0
372 1 24.449757191016566 8.036680286071617 10.830294228629237 0 0 0
376 1 25.829008088891236 9.575305291831544 12.190264138602789 0 0 0
381 1 28.586237726734126 6.761068508198979 12.26896323107863 0 0 0
380 1 29.967794383520513 8.236499069366685 11.028018388625611 0 0 0
384 1 31.362122354052268 9.632903349272238 12.264842465325097 0 0 0
389 1 1.421632497897017 12.25769626330313 12.10795509179222 0 0 0
393 1 5.400480268811143 10.911434885657352 10.907830375413091 0 0 0
397 1 6.8179119413342715 12.289391262003551 12.303604416379205 0 0 0
401 1 10.849056147316524 10.915523235363565 10.81265854141092 0 0 0
405 1 12.253901564228185 12.158172720200376 12.244063934176582 0 0 0
409 1 16.293716094664912 10.673868797536722 10.906037524846539 0 0 0
413 1 17.571805746278958 12.136904166681587 12.186946306652327 0 0 0
417 1 21.701489725286663 10.88911561254156 10.859402229043416 0 0 0
421 1 23.143714543683227 12.148833741697771 12.095954496755642 0 0 0
425 1 27.188603403720748 10.870113046167242 10.873374990873113 0 0 0
429 1 28.52300913672092 12.20732257928138 12.242491441988468 0 0 0
385 1 0.03908606207717469 10.909322530686511 10.781240937832544 0 0 0
388 1 2.651995549350307 13.619407983480295 10.851063445312949 0 0 0
414 1 17.63022448251781 14.932752733458738 14.968477076234333 0 0 0
392 1 4.0182585974552945 15.000454326708292 12.156759863573217 0 0 0
396 1 8.075750417726718 13.530644186421362 10.847919340231295 0 0 0
400 1 9.510214945335075 14.97700980448479 12.192529630519878 0 0 0
404 1 13.529194368311634 13.56319182052001 10.935712489071344 0 0 0
548 1 13.487235816964292 13.587939016525354 16.172055451858963 0 0 0
408 1 14.85732051088717 14.96079339932815 12.293759870290213 0 0 0
412 1 18.914535226973694 13.619529700330002 10.841013325136377 0 0 0
416 1 20.381407742241333 14.950969695571356 12.183035532567661 0 0 0
1185 1 21.72894289743831 16.247616320176128 10.881311502132275 0 0 0
420 1 24.613670674621144 13.569039992766063 10.887617700369372 0 0 0
424 1 25.869159705155802 14.998841860666849 12.139004014038578 0 0 0
428 1 29.9686146170921 13.689660806170973 11.026348411983484 0 0 0
432 1 31.280804062094177 15.032284859154062 12.260610559044457 0 0 0
11 1 8.122248778348755 0.0027716510418613893 2.684701329393773 0 0 0
295 1 4.05161979772942 1.179204486596695 14.95397829055495 0 0 0
298 1 5.4177008185603786 2.548897557369163 13.642267604430506 0 0 0
299 1 8.214539751227734 0.010889330346730678 13.705496025589639 0 0 0
899 1 24.557990773533135 16.2165787926306 2.6471330670436832 0 0 0
303 1 9.485376486636534 1.2716627348427458 15.019907847389533 0 0 0
306 1 10.865871924457073 2.649381770869182 13.62046408546628 0 0 0
394 1 5.36791080586253 13.588298047259586 13.524586167591472 0 0 0
311 1 14.994519952445977 1.2765858029110058 15.034119127578627 0 0 0
314 1 16.455635622908265 2.6089720722821075 13.616309706769055 0 0 0
319 1 20.418606651827567 1.362362958233883 14.952882557845772 0 0 0
390 1 1.2944055611667162 14.94311915936546 14.90455704788701 0 0 0
322 1 21.754676021256813 2.786123958938984 13.637036709369523 0 0 0
406 1 12.13098165883911 14.960865347064813 14.963065704323085 0 0 0
327 1 25.90219839934341 1.3147938576320846 14.869393117385215 0 0 0
468 1 24.48617213361361 2.6389405393596097 16.25521696313288 0 0 0
330 1 27.252018059481735 2.6933051746133034 13.401918652166332 0 0 0
290 1 32.60164128475111 2.701028964673783 13.524090710577246 -1 0 0
331 1 29.820993010278308 -0.01720834363303482 13.476659639272837 0 0 0
335 1 31.22548492155703 1.2211067933548692 14.82151566197707 0 0 0
402 1 10.850884278989012 13.56442901821569 13.5860523035483 0 0 0
294 1 1.246633833733019 3.9792798241660545 14.978067159884274 0 0 0
339 1 2.7047270898746336 5.232995651934004 13.610762670365695 0 0 0
398 1 6.81973024119828 14.975442205192802 14.822179124024483 0 0 0
302 1 6.845192917021982 3.9762320661466832 14.904579193129575 0 0 0
347 1 8.131546718408192 5.377755749194625 13.449861960612392 0 0 0
497 1 10.864236497516552 5.318164596619235 16.25329155081516 0 0 0
310 1 12.226278102335007 4.019165185492384 14.895572434455971 0 0 0
355 1 13.727153695506233 5.444886254601979 13.572075085649468 0 0 0
318 1 17.711430491186103 4.050786898838168 14.94249732143136 0 0 0
363 1 18.991753909725023 5.404215646090155 13.670220013094468 0 0 0
326 1 23.070001231714503 4.105923317978964 15.009624111303998 0 0 0
371 1 24.44457353508483 5.363618164694681 13.62173860291089 0 0 0
334 1 28.590107454428466 4.051538878890779 14.912455434144173 0 0 0
521 1 27.272798050900537 5.4694173899168375 16.247002098162888 0 0 0
379 1 30.00752244823133 5.451310345027527 13.56005544703779 0 0 0
342 1 1.3985634704088927 9.539228605895408 14.894824513179383 0 0 0
343 1 4.161823159112759 6.648662585802341 14.912321262572434 0 0 0
346 1 5.450853560582289 8.164992563782272 13.634460606785893 0 0 0
350 1 6.858982719733065 9.462165090955121 14.899659949564612 0 0 0
351 1 9.481670536315812 6.678637344733498 14.797178694460591 0 0 0
354 1 10.916161171288879 8.115158892661608 13.564403258713622 0 0 0
358 1 12.232832222870952 9.534653515648891 14.994903372251413 0 0 0
359 1 14.933096076209832 6.826602070196567 14.934930269644532 0 0 0
362 1 16.401941733596114 8.070933697593656 13.60168660777279 0 0 0
366 1 17.609876790209984 9.503715068581231 14.948118641950233 0 0 0
367 1 20.37272714555569 6.794456659056163 15.004116780627072 0 0 0
508 1 19.0144954935739 8.174075450585995 16.263800829212233 0 0 0
370 1 21.838097192293045 8.147136490495878 13.70265724670624 0 0 0
374 1 23.159738044583875 9.440433178286963 15.034461932747519 0 0 0
375 1 25.926125008670244 6.7950096958409585 14.912162767529395 0 0 0
529 1 0.03370074146391744 10.76760563324485 16.285950332577652 0 0 0
378 1 27.192659226132566 8.248708173162148 13.552252043880596 0 0 0
382 1 28.621533432968267 9.59188207612021 14.889198142440355 0 0 0
338 1 0.06906350924315063 8.132959433993875 13.61204910621715 0 0 0
383 1 31.333763538659383 6.790040201388055 14.91384201719213 0 0 0
524 1 29.83270900492161 8.174857737290067 16.254427637920298 0 0 0
387 1 2.6677568366773987 10.939089158386045 13.629833713819462 0 0 0
391 1 4.0197682853004295 12.277171027634573 15.018805368425335 0 0 0
537 1 5.344717122370143 10.8205553096213 16.254400736391272 0 0 0
395 1 8.194202392070784 10.870056633185335 13.57122194687619 0 0 0
399 1 9.526716249894102 12.208911158204412 14.96500342256318 0 0 0
403 1 13.625299110178862 10.766997352435634 13.574425708664876 0 0 0
407 1 14.88719745703972 12.149618857925345 14.859146734471814 0 0 0
427 1 30.014482327532555 11.026524434374563 13.626738740813677 0 0 0
415 1 20.372853551571605 12.248577830528166 14.95237553394328 0 0 0
411 1 19.01369550897145 10.851368872742295 13.557287389726921 0 0 0
423 1 25.73481312500716 12.218544125302639 14.900771135759165 0 0 0
419 1 24.377076934239366 10.825883900837018 13.427561134917163 0 0 0
431 1 31.451240129812252 12.2752914757541 15.014607218786816 0 0 0
476 1 29.802691239898508 2.5783816680935128 16.18645584541239 0 0 0
505 1 16.254097202265818 5.330076718270799 16.193262528131786 0 0 0
513 1 21.821006153058924 5.525308903700935 16.262298073827242 0 0 0
484 1 2.6454740721679677 8.010602412095677 16.250556773207727 0 0 0
492 1 8.173958108668568 8.049730533041732 16.265715185842982 0 0 0
532 1 2.5663865772460657 13.59048782719795 16.28338330643949 0 0 0
540 1 8.009610908678216 13.553465361540555 16.17994655949679 0 0 0
116 1 13.427973217158971 13.703783097013023 0.07429373210864298 0 0 0
108 1 8.077125149276688 13.629042910026941 0.04625035035330427 0 0 0
49 1 32.58784229431142 5.456464745731063 0.00037330434751936536 -1 0 0
76 1 19.026312885257433 8.111593475908576 0.0005106645137828991 0 0 0
129 1 21.646504067284823 10.905242371797382 -0.005431812421228699 0 0 0
434 1 32.5708772331767 2.7037789090700066 19.01623776354061 -1 0 0
437 1 1.3834161099926927 1.327064403838406 17.674575077723706 0 0 0
140 1 29.854448875714276 13.460609401996205 32.58890137994396 0 0 -1
442 1 5.334171359049786 2.628922799357152 18.936879111733294 0 0 0
905 1 27.122915752438143 16.255476319850576 32.55890995017172 0 0 -1
445 1 6.7946768008262115 1.227569482220853 17.644469353777446 0 0 0
450 1 10.924364384048895 2.59416398490859 18.933716993425566 0 0 0
858 1 27.20817544636849 13.486438031008497 29.848440350042242 0 0 0
453 1 12.322832746425025 1.315674496583789 17.619096858203907 0 0 0
458 1 16.351491578975363 2.6787065290513583 18.986133236462248 0 0 0