LAMMPS data file via write_data, version 19 Nov 2024, timestep = 60100, units = metal

1728 atoms
1 atom types

-0.021827210619633775 32.60182721062033 xlo xhi
-0.021827210619633775 32.60182721062033 ylo yhi
-0.021827210619633775 32.60182721062033 zlo zhi

Atom Type Labels

1 Si

Masses

1 28.0855

Atoms # atomic

2 1 0.017429671034474178 2.6152717910135155 2.636044693683949 0 0 0
307 1 13.595190376344684 0.038529430779249196 13.498111562092456 0 0 0
5 1 1.403383126376462 1.2763428499717815 1.2656079530845266 0 0 0
10 1 5.236547604242829 2.6940956782590613 2.843000822163666 0 0 0
572 1 29.826690671503137 13.520970622314469 16.157511992530356 0 0 0
12 1 8.04650717542024 2.7194327598740142 0.09625137466531984 0 0 0
13 1 6.657348646767173 1.357893073632119 1.3126202596145962 0 0 0
17 1 10.816997333327762 0.005901995918108577 0.044675537630883846 0 0 0
18 1 10.86898757571679 2.7826777165451757 2.861818264242133 0 0 0
21 1 12.152928623764502 1.407923338347081 1.4778471648412717 0 0 0
26 1 16.3361430064243 2.747754745300343 2.7127117061727892 0 0 0
29 1 17.646734740696083 1.4205675895606025 1.2298592909730302 0 0 0
299 1 8.184128202987973 0.052951377744172134 13.503398224585812 0 0 0
34 1 21.779872293259427 2.4933346659729145 2.6403115775984256 0 0 0
37 1 23.128148622615722 1.190975443993516 1.2732930642854852 0 0 0
426 1 27.075966406982232 13.568354865384228 13.52731245706463 0 0 0
430 1 28.48630967204537 14.918353995330996 14.850437042573676 0 0 0
42 1 27.2092339902778 2.5688481847389633 2.7016810026746594 0 0 0
45 1 28.531445841714753 1.202312211103472 1.387575997380937 0 0 0
1171 1 13.614904679613858 16.232306741566795 13.606307999126097 0 0 0
49 1 32.572354923243765 5.452648496556761 -0.014014164320403822 -1 0 0
51 1 2.6566373828834067 5.512734419947806 2.742629940870516 0 0 0
8 1 3.9399041134772093 4.057422897096107 1.3921883624211495 0 0 0
305 1 10.83831641571005 0.08716277436157327 10.735614183731629 0 0 0
59 1 8.043479875675706 5.415402885222134 2.6288174689363677 0 0 0
16 1 9.515539240120098 4.046048876245607 1.4393275245062755 0 0 0
67 1 13.566504305393147 5.433074995166076 2.698654106758273 0 0 0
24 1 14.99954580044665 4.119727633521676 1.320731502747448 0 0 0
171 1 19.124341331570474 -0.01693293148185404 8.084093050222293 0 0 0
32 1 20.434751644644695 3.9878853937180083 1.2485221517017988 0 0 0
75 1 19.074823398490274 5.35978591418566 2.6354280817278313 0 0 0
40 1 25.857971904863582 3.964766976568004 1.3919464341487031 0 0 0
83 1 24.47300482447368 5.293760169323669 2.7006865656026635 0 0 0
48 1 31.218665691111614 4.085243833969002 1.3929083794744055 0 0 0
91 1 29.81260836605542 5.433931678554719 2.6976187698441185 0 0 0
52 1 2.613404228890574 8.203995265730052 0.10670414620711755 0 0 0
53 1 1.2302362784856078 6.8086017257065645 1.4121217128383783 0 0 0
56 1 3.9535540582793027 9.44872784726531 1.4700630003962079 0 0 0
58 1 5.461674796422916 8.129043951783139 2.6891884338861485 0 0 0
161 1 10.899130461005788 -0.0024414191891537484 5.451757712300284 0 0 0
61 1 6.671610694262455 6.800763326058787 1.2252547197391583 0 0 0
64 1 9.539357374788441 9.348560436129363 1.1668555114244974 0 0 0
66 1 10.793472672402574 8.137875831606427 2.6459285706326114 0 0 0
69 1 12.289088940847803 6.919616999925451 1.4333961584444896 0 0 0
72 1 14.977898328359034 9.504024681362543 1.3715957979902809 0 0 0
74 1 16.412757600996642 8.187987209932261 2.736866002169673 0 0 0
77 1 17.68054857247754 6.72746714468063 1.2689996349711186 0 0 0
76 1 19.104274629089286 8.119263735117535 0.025922283727483994 0 0 0
80 1 20.443281495441752 9.465245558777706 1.3974651254721577 0 0 0
82 1 21.849295946308978 8.072018683590203 2.694641921049822 0 0 0
85 1 23.23676778858419 6.766004316827416 1.3932149045498123 0 0 0
84 1 24.36253803657771 8.087024279410098 -0.016213435137507115 0 0 0
88 1 25.80832193349232 9.507360824599004 1.3382835127683763 0 0 0
90 1 27.10683343595747 8.08128510408455 2.7189569969743044 0 0 0
93 1 28.48235106044958 6.785289805242063 1.3875404625531045 0 0 0
50 1 32.44411649542563 8.154024093757261 2.7229181995796155 -1 0 0
96 1 31.181987245307013 9.533242618546092 1.2795000776862622 0 0 0
99 1 2.690086517259767 10.922716985579697 2.797818652447844 0 0 0
101 1 1.3510839269224608 12.129234038197637 1.2728309484045932 0 0 0
107 1 8.198521803529443 10.698381524323496 2.628386051816016 0 0 0
109 1 6.805191672016336 12.084988181681084 1.318257325689857 0 0 0
113 1 10.832469100498727 10.801377384699522 -0.0043239753339847555 0 0 0
115 1 13.652299770050208 10.904779365046272 2.6267101584459525 0 0 0
117 1 12.217387768543977 12.234622984397209 1.2582201892074831 0 0 0
121 1 16.30888359009994 10.837548964782346 0.04000704989550772 0 0 0
125 1 17.738796461638874 12.164047429959504 1.4414394027831103 0 0 0
123 1 19.24384531235457 10.840282183602755 2.7446689499168304 0 0 0
133 1 23.039307218912146 12.215440474984936 1.2982464916814624 0 0 0
131 1 24.413712285382502 10.867439580843696 2.6259922469725123 0 0 0
141 1 28.461084154805985 12.168465814502284 1.3599894754198667 0 0 0
139 1 29.820533538942527 10.91183159992488 2.739774840752355 0 0 0
98 1 0.07389616089004285 13.582192299313501 2.716442334306326 0 0 0
104 1 4.078531258891088 14.906543579519907 1.3328113028890056 0 0 0
106 1 5.510248268650812 13.544395382643687 2.6263710886988134 0 0 0
1041 1 21.71409525534743 16.275294024205547 5.373458279594796 0 0 0
875 1 8.081636141837347 16.24634918621484 2.723481627004478 0 0 0
112 1 9.511431684374708 14.941416769161211 1.3520209163854184 0 0 0
114 1 10.872192572971832 13.52805628620356 2.64800522950004 0 0 0
1033 1 16.37065292643621 16.1937093687913 5.372181037344939 0 0 0
883 1 13.616581573857394 16.244996647681674 2.7126204918560153 0 0 0
120 1 14.956409533824912 14.880044447799412 1.3397700523951384 0 0 0
122 1 16.384807620196554 13.538554894200557 2.727856245410008 0 0 0
124 1 19.07553957484573 13.515869399479884 -0.020775201998392452 0 0 0
128 1 20.31585097363944 14.853183552660216 1.3658699970357269 0 0 0
130 1 21.845755811442302 13.60836092222381 2.6416115383545438 0 0 0
899 1 24.45356831606316 16.199195414311472 2.6796209380008373 0 0 0
136 1 25.85771875835264 14.9593161155046 1.2576867239160023 0 0 0
138 1 27.094997272330108 13.59696597374367 2.7519535836676505 0 0 0
144 1 31.279653652588784 14.891122333769825 1.4418456263314021 0 0 0
1187 1 24.469278750221097 16.261228842908544 13.535296402680176 0 0 0
418 1 21.83529824522276 13.632729673042952 13.576864959292806 0 0 0
148 1 2.7255620956729247 2.7195228206748845 5.520536123704935 0 0 0
7 1 4.018931645115643 1.2731133227634415 4.198563275601065 0 0 0
156 1 8.00554242774697 2.6417200805573144 5.378254976400923 0 0 0
15 1 9.473403495625261 1.322182457351642 4.088060793093006 0 0 0
164 1 13.551488911067123 2.6711333652467664 5.385739358422989 0 0 0
23 1 14.929360834280706 1.4346988797142135 4.089766855330401 0 0 0
31 1 20.3782057751131 1.1946386787636172 4.005222709478067 0 0 0
172 1 19.058927265765213 2.6924888095384523 5.368716171386321 0 0 0
39 1 25.72024118332118 1.274403690887489 4.000497057798048 0 0 0
180 1 24.459073871631222 2.628537261851677 5.392211410959066 0 0 0
47 1 31.252842744568117 1.3552496199616684 4.040115557767045 0 0 0
188 1 29.810100207503222 2.770371200504323 5.438432232890832 0 0 0
6 1 1.3978013578471202 4.001527075916213 4.010040271967955 0 0 0
201 1 5.383733261831032 5.466758752158858 5.473071307990873 0 0 0
14 1 6.740884340404678 4.08094362205618 4.02620342098393 0 0 0
209 1 10.794423463439642 5.4645181551272035 5.485526218667869 0 0 0
22 1 12.256190743929917 4.1979293779528355 4.178353399839291 0 0 0
30 1 17.724997721709016 4.141454073206866 4.095198217154948 0 0 0
217 1 16.213180742074154 5.406254989592535 5.46431465140072 0 0 0
38 1 23.088657675852374 3.9731485883081006 3.9691175291098792 0 0 0
225 1 21.760747822257876 5.2737596482039795 5.351381234377737 0 0 0
46 1 28.434976693372562 4.060665763877434 4.078009638643771 0 0 0
233 1 27.08263341327496 5.296897615482028 5.482451963714099 0 0 0
193 1 -0.017163194833436535 5.361576662031042 5.373006565628583 0 0 0
54 1 1.3661599214257378 9.48347329437623 4.046149059599598 0 0 0
196 1 2.7627306608029008 8.190801811882858 5.4457376713331955 0 0 0
55 1 4.047075525382715 6.795940272494426 4.0586833417921016 0 0 0
62 1 6.801765060444017 9.499423679310214 4.023913337943694 0 0 0
204 1 8.065909241594733 8.121009243089375 5.419099706385373 0 0 0
63 1 9.366120896310063 6.767719418707364 4.0145234569167485 0 0 0
70 1 12.180410711840425 9.565773322706907 3.8971617969304773 0 0 0
212 1 13.538551110547015 8.236793626229195 5.246028291671481 0 0 0
71 1 14.989958534543188 6.840073578753758 3.9999666895175965 0 0 0
78 1 17.748614153572962 9.575518717973972 4.030222867603113 0 0 0
79 1 20.45916168936679 6.7143917462641385 4.052687342223606 0 0 0
220 1 19.037136649843912 8.117642717188271 5.3780266119138105 0 0 0
86 1 23.17603517632423 9.482539457949851 4.158858486638625 0 0 0
87 1 25.81903905933713 6.6894526516929975 4.113267097663207 0 0 0
228 1 24.481207213614816 8.018831985361459 5.490765121613854 0 0 0
94 1 28.491205708544168 9.551017480805978 4.136418905342554 0 0 0
95 1 31.213660301142568 6.786523501332375 4.080252785882741 0 0 0
236 1 29.820083833735573 8.091493896631151 5.447838101078296 0 0 0
103 1 4.133307703929966 12.287231796098034 4.015554144421222 0 0 0
249 1 5.5127090808169195 10.867158247919557 5.303826198809327 0 0 0
111 1 9.50332845676074 12.18345176858264 4.020220512602956 0 0 0
257 1 10.847759912764197 10.796578134983713 5.334064276830428 0 0 0
119 1 14.920683853088189 12.208764369802788 4.0656635506849135 0 0 0
265 1 16.352561416249127 10.886318251079897 5.471239979743417 0 0 0
127 1 20.514430301434842 12.183111436049659 4.064444756395151 0 0 0
273 1 21.819131502360612 10.888726664657925 5.495487118458489 0 0 0
135 1 25.763476113978268 12.226664415648427 4.053481339991886 0 0 0
281 1 27.071034754821742 10.884193934722237 5.462632686267178 0 0 0
241 1 -0.019724012941630065 10.849638804303172 5.468493447276292 0 0 0
143 1 31.252044624971358 12.198199726241567 4.049108611092469 0 0 0
102 1 1.3810905607598143 14.989069665151838 4.146891480840099 0 0 0
244 1 2.686695356793225 13.497718615111511 5.525121485254184 0 0 0
1017 1 5.346577558635573 16.260141381392913 5.428771657577118 0 0 0
110 1 6.747091885711706 14.853316158655167 4.159766618449089 0 0 0
252 1 8.247491965440485 13.59971092422517 5.477728327496413 0 0 0
422 1 23.15064381784201 14.940633263411044 14.964490956462248 0 0 0
118 1 12.134266173864143 14.957192447107644 4.033408977184753 0 0 0
260 1 13.558816236687164 13.581917521791347 5.396024257377492 0 0 0
126 1 17.781721908714808 14.886885338668302 4.094916140755507 0 0 0
268 1 19.188845955812504 13.582556602645706 5.489130515306051 0 0 0
134 1 23.116584793117493 14.927452469232488 4.095872604715684 0 0 0
276 1 24.428421219085433 13.521409026443473 5.427938688457242 0 0 0
142 1 28.51599112056546 15.007320219761889 4.089861755274315 0 0 0
1321 1 16.257547707050122 16.27628025266704 16.261003884205632 0 0 0
284 1 29.895461044218255 13.623824055108761 5.436680109195947 0 0 0
146 1 32.5834048560547 2.636024621819324 8.185817317941156 -1 0 0
149 1 1.3123899606436795 1.2932691626582584 6.796506199315181 0 0 0
151 1 4.07863458430022 1.2385530127441369 9.571357339327891 0 0 0
154 1 5.4365363318333335 2.653624679758861 8.198550313197902 0 0 0
410 1 16.29054317454872 13.662477910053243 13.557706821248143 0 0 0
157 1 6.779634099553428 1.326852714847019 6.804409727026108 0 0 0
159 1 9.463474749070759 1.4532128155501256 9.5116326683164 0 0 0
162 1 10.771076586145469 2.875876927267167 8.115371377815125 0 0 0
163 1 13.569008107220483 0.039839144341857195 8.06365023638185 0 0 0
165 1 12.196498529692558 1.426254738897522 6.783394720367258 0 0 0
167 1 14.925712286030409 1.2647451358785295 9.559667850362843 0 0 0
170 1 16.239171743351015 2.5817289612886283 8.119151935936113 0 0 0
173 1 17.739265724557928 1.3626584491449811 6.876520646213574 0 0 0
175 1 20.389907382766012 1.3631265987656704 9.521766267587061 0 0 0
178 1 21.644863769567856 2.6779136375366397 8.091187994707488 0 0 0
181 1 23.04183822974732 1.3174712891804559 6.671271764935759 0 0 0
183 1 25.663160161308717 1.2869686312090243 9.561708505904562 0 0 0
186 1 26.950563301923196 2.581659002103154 8.109607626202491 0 0 0
189 1 28.459328754757138 1.2958148468703765 6.84116361175458 0 0 0
414 1 17.763354564552074 15.053746237622594 14.907212575252476 0 0 0
191 1 31.15167316798297 1.3423826893285726 9.509831980624229 0 0 0
150 1 1.3046045035420823 4.016243877866981 9.50761596260455 0 0 0
195 1 2.680975813251377 5.3767848968729135 8.207909829910145 0 0 0
152 1 4.0498712116827935 4.019240306933924 6.837983120452517 0 0 0
158 1 6.8195450518703975 3.9614007698027236 9.573626147203353 0 0 0
203 1 8.001278228724203 5.400636907145841 8.126229535439938 0 0 0
160 1 9.368715075686861 4.045571050962195 6.677709893278345 0 0 0
166 1 12.1586708706205 4.054510103126512 9.466220382524467 0 0 0
211 1 13.56647014040514 5.476804730270198 8.15575138828664 0 0 0
168 1 14.876605206452297 3.995820983851141 6.814863176269911 0 0 0
174 1 17.621524299367287 3.970073669455919 9.452445015886257 0 0 0
176 1 20.35280302251419 3.995232495191092 6.73001305292498 0 0 0
219 1 18.93682437856484 5.434988591321357 8.149896438262827 0 0 0
182 1 22.96375402345661 3.9241929328951857 9.518550184844944 0 0 0
184 1 25.643520238012773 3.9522266323267687 6.735420001939029 0 0 0
227 1 24.296126516412848 5.3035505240997285 8.150512293683896 0 0 0
190 1 28.415924140197003 3.905718221115521 9.461795310739621 0 0 0
192 1 31.24107792364552 4.109129558616266 6.812189371167417 0 0 0
235 1 29.83753939699558 5.3714210030738645 8.13579461779089 0 0 0
197 1 1.3992463430720758 6.775480789372859 6.808824330022214 0 0 0
198 1 1.3721797826971884 9.495268893425493 9.44291671716626 0 0 0
199 1 3.9737220230080763 6.80153095473662 9.52408032766134 0 0 0
200 1 4.135883205384762 9.568878579114063 6.677401201537086 0 0 0
202 1 5.360513296877269 8.220895344806506 8.106741774151118 0 0 0
205 1 6.674208549542395 6.825370469195078 6.8000203500821454 0 0 0
206 1 6.68382331720929 9.535865674479599 9.61127754368684 0 0 0
207 1 9.42836977714105 6.801954702939067 9.439176678862614 0 0 0
208 1 9.42808089914582 9.414244971460299 6.778519767224091 0 0 0
210 1 10.772114959273857 8.152897962677178 8.106525452566865 0 0 0
213 1 12.195141660838708 6.80206993125413 6.752630375952865 0 0 0
214 1 12.201312782699462 9.493122362160028 9.408911589497439 0 0 0
215 1 14.975727459514648 6.816175616722062 9.507317827957651 0 0 0
216 1 14.90773326777418 9.512113283638072 6.757792484717981 0 0 0
218 1 16.317801303553214 8.161450505460266 8.164134070466968 0 0 0
221 1 17.60238950731795 6.78707264748542 6.802801232492411 0 0 0
222 1 17.688212765346016 9.49509052884012 9.50974424065111 0 0 0
223 1 20.318990746724534 6.734395388113498 9.524729288612022 0 0 0
224 1 20.466476677189526 9.42091858205093 6.784209817512732 0 0 0
226 1 21.65833709663052 8.07332266160055 8.19857239717602 0 0 0
229 1 22.97588566339762 6.731523078059965 6.7831715765060245 0 0 0
230 1 23.097263544047724 9.383314439127991 9.529373705129029 0 0 0
231 1 25.741621626341367 6.579555871764521 9.523536522166282 0 0 0
232 1 25.845356961813174 9.46407304736017 6.8458927672449175 0 0 0
234 1 27.069664613567053 7.981386897395318 8.158334904258309 0 0 0
237 1 28.416914505011768 6.643662978858304 6.7640336088950646 0 0 0
238 1 28.416621917746124 9.388521381562251 9.44860230114002 0 0 0
194 1 32.595810000516586 8.122527177803448 8.168027270377678 -1 0 0
239 1 31.25925662390411 6.757039047482808 9.448351922783182 0 0 0
240 1 31.25084957049756 9.455109717572464 6.736678476743548 0 0 0
243 1 2.7765485263061978 10.854528347253547 8.113945314386175 0 0 0
245 1 1.2584177378349282 12.161214200954618 6.944256787157648 0 0 0
247 1 4.020751476672434 12.251021878500902 9.481142713079928 0 0 0
251 1 8.089077846004924 10.790643015948445 8.211985173219619 0 0 0
253 1 6.876667576401753 12.131985131842573 6.768554591143379 0 0 0
255 1 9.614837463387158 12.182211959272179 9.416995631714121 0 0 0
259 1 13.545218181041307 10.893401021053398 8.064970992134239 0 0 0
261 1 12.237348302074473 12.243564394122076 6.6499529943554725 0 0 0
263 1 15.094073229890215 12.244570045103876 9.37036170394178 0 0 0
269 1 17.723496542956777 12.292318836650617 6.807547648188013 0 0 0
267 1 19.069909743964377 10.830524974357674 8.157582365907423 0 0 0
271 1 20.367416638256362 12.163520149800348 9.515832619762485 0 0 0
277 1 23.148209784034485 12.1814858235914 6.8802072085114565 0 0 0
275 1 24.372268143356607 10.863937730870212 8.192402180552278 0 0 0
279 1 25.86197376469169 12.204211460860076 9.462033653121045 0 0 0
285 1 28.50651879830332 12.251675494654336 6.740077720165349 0 0 0
283 1 29.768176976590706 10.806694403619863 8.048065057488955 0 0 0
287 1 31.16696592723576 12.19304850536312 9.525442022612287 0 0 0
1011 1 2.6696572718311637 16.258658021068698 8.142093120294557 0 0 0
246 1 1.2808698211999212 14.98576953793604 9.492762566015847 0 0 0
248 1 4.041248182953959 14.911757648556096 6.860688635048159 0 0 0
250 1 5.481560905177273 13.510100664381214 8.121791298336229 0 0 0
569 1 27.09147475618497 10.82362549061476 16.17261910496518 0 0 0
254 1 6.700997174129489 14.925445562993499 9.462093829858873 0 0 0
256 1 9.51067474002869 14.980301817824712 6.793128625072876 0 0 0
258 1 10.910420915102101 13.57211725800192 8.068972854325189 0 0 0
406 1 12.256981619186714 14.88171731136954 14.97211892051942 0 0 0
262 1 12.324347167740942 14.845391742153241 9.483444064851765 0 0 0
264 1 14.975413969844965 14.976080544862521 6.722098708345194 0 0 0
266 1 16.381576038160546 13.643711426494358 8.123426561823795 0 0 0
270 1 17.765006143141285 14.962965701548178 9.509765253023929 0 0 0
1035 1 19.073371864858288 16.277307500665756 8.165429920187927 0 0 0
272 1 20.488485459958614 14.898516273512346 6.8873691748568895 0 0 0
274 1 21.84934804021413 13.634589826276736 8.189657279962384 0 0 0
278 1 23.193008980558528 14.995895070195937 9.492662477315198 0 0 0
419 1 24.396435384210662 10.876303210903432 13.541294695161064 0 0 0
280 1 25.796077931861394 15.006287519121381 6.799659260776212 0 0 0
282 1 27.169001106131805 13.608790701250868 8.114171271645839 0 0 0
286 1 28.526061583144255 14.962464493630593 9.490150500302185 0 0 0
402 1 10.896430650604653 13.443920125409374 13.59590188769956 0 0 0
242 1 32.51551001535583 13.665172716697423 8.12085847752232 -1 0 0
288 1 31.156520311353752 15.042367715590736 6.740415839892245 0 0 0
292 1 2.7612783230117643 2.684289157443389 10.87659008691364 0 0 0
293 1 1.294568882716638 1.3975920079381963 12.176809633882156 0 0 0
423 1 25.753471723804875 12.243146694877952 14.842604201173698 0 0 0
300 1 8.133779163080089 2.695054350835432 10.909183051507785 0 0 0
301 1 6.807910299925595 1.4459720656096526 12.232412903949772 0 0 0
308 1 13.573360145251765 2.687489427961274 10.83757111564872 0 0 0
309 1 12.206389660517784 1.3907249546547895 12.18821201644087 0 0 0
398 1 6.776886397059394 14.916135692004868 14.938915143989895 0 0 0
317 1 17.616588968380512 1.2486757691291606 12.185449695890808 0 0 0
316 1 18.94869999393363 2.709094402298603 10.887916574355645 0 0 0
411 1 19.122670977326948 10.901173544995812 13.624082794288444 0 0 0
325 1 22.905794662972692 1.2869487569761577 12.283257136659111 0 0 0
324 1 24.269366533257738 2.582869372765926 10.872413173064352 0 0 0
394 1 5.422853901033183 13.569100964623138 13.567861115584119 0 0 0
333 1 28.4350198634295 1.3464972682249798 12.332014722613556 0 0 0
415 1 20.454663729181025 12.375740676242764 15.011662791271563 0 0 0
332 1 29.77481549363153 2.6762369407326143 10.884632303888434 0 0 0
337 1 32.52315275879438 5.441177821930113 10.80221685365212 -1 0 0
296 1 4.119352476515192 4.073286179959014 12.254626604203793 0 0 0
345 1 5.48396625901543 5.464800102987898 10.86144763421732 0 0 0
304 1 9.530627868378668 4.147179321859634 12.230858785430504 0 0 0
353 1 10.886933692854239 5.4702122648945455 10.842550986806602 0 0 0
312 1 14.963430320966665 4.036314377362487 12.246236810525614 0 0 0
361 1 16.2949531910561 5.288429942075169 10.89869869644821 0 0 0
320 1 20.167846995275365 4.104216212770164 12.1973745491083 0 0 0
369 1 21.735077208644046 5.429364484862529 10.86937020443064 0 0 0
328 1 25.686822003260037 4.012399869654216 12.209007019981883 0 0 0
377 1 27.176314574940413 5.327964037960665 10.876273976339483 0 0 0
336 1 31.260380005100362 4.046932067151846 12.22014188116457 0 0 0
340 1 2.6853367690244014 8.200661043584653 10.898463259408961 0 0 0
341 1 1.332837341693612 6.86023209659524 12.18533055338902 0 0 0
344 1 4.030516761691257 9.587027953233921 12.203520053414547 0 0 0
348 1 8.162616799001887 8.147670949590962 10.774145098586446 0 0 0
349 1 6.847795872542082 6.828268018591532 12.220421675409714 0 0 0
352 1 9.57822379002921 9.539636747250785 12.100653749781182 0 0 0
356 1 13.560380500872386 8.206039191094137 10.751435009279472 0 0 0
357 1 12.195378769229597 6.788275011827831 12.16420774747127 0 0 0
360 1 14.967150297922974 9.552698578874109 12.132184790837943 0 0 0
365 1 17.62205611309777 6.697931064978837 12.18705661931542 0 0 0
364 1 19.06497293918603 8.109721369198102 10.938003126354731 0 0 0
368 1 20.421041840789247 9.447781218343625 12.26901253607036 0 0 0
373 1 22.981804410070634 6.80375581978284 12.263475676952945 0 0 0
372 1 24.36086205686023 7.986633881007888 10.82201424750289 0 0 0
376 1 25.704281127191873 9.380097581573287 12.236178360372067 0 0 0
381 1 28.560189864299385 6.748517208248179 12.17414949763667 0 0 0
380 1 29.845098235598364 8.091088366303067 10.807079971308857 0 0 0
384 1 31.289355408861375 9.510699067255286 12.113723754157174 0 0 0
385 1 -0.0038159720245023124 10.820935729765033 10.734659959821451 0 0 0
389 1 1.3033596397642913 12.247520717859278 12.168773669560254 0 0 0
393 1 5.41732862290143 10.941264467556186 10.873157573424667 0 0 0
397 1 6.863937925456582 12.239388355628009 12.231518774151333 0 0 0
401 1 11.011430766152907 10.889041688940297 10.779558141808472 0 0 0
405 1 12.32890584798325 12.284343446625929 12.226564718283846 0 0 0
409 1 16.335341538762247 10.90056373500058 10.820534789747505 0 0 0
413 1 17.682317153487958 12.179142317425029 12.178652718271154 0 0 0
417 1 21.795507930393896 10.800418315106247 10.870583620219287 0 0 0
421 1 23.076535043433026 12.242917838847344 12.157553500876114 0 0 0
425 1 27.072251372121386 10.802778913132725 10.897452841358696 0 0 0
429 1 28.451951809634423 12.231340573450462 12.164408351989689 0 0 0
388 1 2.6646349296321867 13.572085150805849 10.919607055584207 0 0 0
386 1 0.017981382881284324 13.571983197225617 13.587438969563136 0 0 0
392 1 3.982816528751726 14.940357859733188 12.238815994015097 0 0 0
396 1 8.177862954337268 13.514531935164037 10.718007788807048 0 0 0
1169 1 10.89713381667544 16.161067666951443 10.788467426910238 0 0 0
400 1 9.562590459008186 14.906367392365677 12.235992345043869 0 0 0
404 1 13.714731553411955 13.527969748560801 10.713205861453337 0 0 0
408 1 14.959771224010668 14.94592150836236 12.058907216681826 0 0 0
412 1 19.059578438347618 13.57253589847185 10.93198411561425 0 0 0
416 1 20.374236323703382 14.964309315330667 12.172009324586284 0 0 0
390 1 1.3811215066384988 14.867576840742515 14.954742842621396 0 0 0
420 1 24.477178758568108 13.613776381755924 10.8261453311853 0 0 0
424 1 25.817830325816203 14.933964535742245 12.098684470334105 0 0 0
1155 1 2.6882186089552556 16.289275336651592 13.642596196782247 0 0 0
529 1 32.5325149524727 10.825933099201253 16.165600828407893 -1 0 0
428 1 29.8087367173716 13.605488082788911 10.875688283821965 0 0 0
432 1 31.293175145969354 14.889821023689914 12.205277763241712 0 0 0
290 1 0.012470419067694282 2.712037598709107 13.680106474162196 0 0 0
291 1 2.72520746743663 0.005482560111313614 13.495821600206702 0 0 0
295 1 4.021306244911848 1.3954667245120849 14.937643994656378 0 0 0
298 1 5.4694372977019245 2.7174558621302394 13.627268162614559 0 0 0
427 1 29.82209408554932 10.750032236299127 13.411393571700465 0 0 0
303 1 9.460546333389988 1.358773009606673 14.885937731429156 0 0 0
306 1 10.870357497063909 2.7579358586583003 13.529793100786973 0 0 0
311 1 14.984557718333784 1.3065594674451522 14.98917267230865 0 0 0
452 1 13.55110409944474 2.7635144363860142 16.22292307693189 0 0 0
314 1 16.3576291180489 2.6156892686384676 13.667041516038534 0 0 0
431 1 31.142932464962136 12.188867842628259 14.825889572234065 0 0 0
319 1 20.262544871220896 1.3459262879910316 14.887816289451926 0 0 0
322 1 21.50868302061707 2.7517295488996862 13.587851607882145 0 0 0
327 1 25.75656449176662 1.368948900546977 14.86653635823633 0 0 0
330 1 27.10582567727697 2.7318692975284926 13.555986975504233 0 0 0
331 1 29.827513319439422 0.02112391100158236 13.626973334411579 0 0 0
335 1 31.182402297525055 1.3296857324195075 14.934475706928756 0 0 0
407 1 15.009554261310429 12.26502644930696 14.902421817164418 0 0 0
294 1 1.3510107403287621 4.171314420221376 14.964612841695944 0 0 0
339 1 2.7587402036512847 5.518515230156314 13.530131864919658 0 0 0
403 1 13.63738423631401 10.866702496744143 13.60079495784718 0 0 0
489 1 5.526735442956434 5.510513094640131 16.27282873458442 0 0 0
302 1 6.764708420133424 4.07762178266479 14.973612010514184 0 0 0
347 1 8.083403910955566 5.458889446424954 13.599478086597472 0 0 0
497 1 10.79344908339875 5.457544866249473 16.282862056526756 0 0 0
310 1 12.161795020456317 4.227167903984126 14.857154972025791 0 0 0
355 1 13.590530543612964 5.4354839970725894 13.507694740116808 0 0 0
318 1 17.68391417399003 3.9580915223378 15.002480179779292 0 0 0
363 1 18.98231902507912 5.487049110612141 13.692410575654662 0 0 0
326 1 22.9608363841887 4.137124647344103 14.902570667600536 0 0 0
513 1 21.677485120917677 5.510985199038592 16.287882911226713 0 0 0
371 1 24.421129536095346 5.451217783883477 13.587697128551293 0 0 0
334 1 28.628370631717402 4.047495291417104 14.886251569718693 0 0 0
399 1 9.557198923952354 12.186021077602717 14.929856236002998 0 0 0
379 1 29.923167239911816 5.473511595398521 13.568853276435542 0 0 0
338 1 0.02298875431349399 8.171143809239366 13.608791116648609 0 0 0
342 1 1.3299056602722332 9.494109088981793 14.915736746139112 0 0 0
395 1 8.263686276174814 10.79825834236299 13.568837625245253 0 0 0
343 1 4.126538437750871 6.811558217337203 14.924154433349452 0 0 0
346 1 5.441159691077419 8.171847486413233 13.561055265295122 0 0 0
350 1 6.88546850164831 9.449986392493495 14.881253547782798 0 0 0
351 1 9.465296517338626 6.83447762310047 14.895558807076785 0 0 0
354 1 10.859032147365468 8.189415903444504 13.530834902647367 0 0 0
358 1 12.326875693797735 9.549481736379526 14.899780862679684 0 0 0
391 1 3.932752118491331 12.216604798828518 14.893466485133251 0 0 0
359 1 14.906890585699774 6.819099563840454 14.900969799530428 0 0 0
362 1 16.27717589494579 8.074713026767737 13.497120301806218 0 0 0
366 1 17.682382652221374 9.539693468486288 14.909954749707508 0 0 0
367 1 20.256915957654723 6.8210445032261005 14.997117563342098 0 0 0
370 1 21.74078068981383 8.116828630310632 13.663003327646928 0 0 0
374 1 23.055148424502665 9.51141093531002 15.019944452439761 0 0 0
375 1 25.902833297221708 6.709271462386092 14.912032374946014 0 0 0
378 1 27.175393301780243 8.119635940651671 13.547015235327486 0 0 0
382 1 28.5361342736065 9.449840604231973 14.924047043409782 0 0 0
383 1 31.219032966114597 6.807341497737558 14.949713568393516 0 0 0
387 1 2.5714912613240064 10.851515920522905 13.55426847998284 0 0 0
444 1 8.205019502507277 2.656669526964945 16.27020677444566 0 0 0
140 1 29.984097499874164 13.567067254091782 0.049705691809130315 0 0 0
465 1 21.700583590651693 0.040132600655940084 16.24614302717645 0 0 0
897 1 21.55697883751133 16.26484349902542 0.0008371439189147623 0 0 0
468 1 24.393208517279877 2.7571690321186133 16.183835696111196 0 0 0
889 1 16.24591617547212 16.232130789565428 -0.012730779807270665 0 0 0
505 1 16.210180459955577 5.338705780750817 16.247223500359297 0 0 0
516 1 24.406744167247556 8.095669064820033 16.283192005992568 0 0 0
524 1 29.904664102631198 8.227173047059438 16.288853877804442 0 0 0
537 1 5.414849600169399 10.809721740870152 16.20059416692394 0 0 0
553 1 16.27232282419441 10.905139741758532 16.237474963273172 0 0 0
556 1 19.044999977255323 13.679311885720788 16.262357464630917 0 0 0
1329 1 21.81544194171359 16.273456759083434 16.252365645786735 0 0 0
20 1 13.590380255010475 2.6903009951984513 0.05161333374664423 0 0 0
449 1 10.864277049407564 0.05851466236081393 16.25811373326989 0 0 0
97 1 32.54335942782402 10.866771973624424 0.006014415571719667 -1 0 0
36 1 24.475831992812594 2.667243739263203 -0.013945126314759193 0 0 0
44 1 29.78360167758848 2.620070505505445 0.058623514729283954 0 0 0
137 1 27.133723634515714 10.904516157289954 -0.013469955366673503 0 0 0
65 1 10.888166786068775 5.4829398135882395 0.11143602683221587 0 0 0
81 1 21.801677347158098 5.351720832888239 0.01887915904867299 0 0 0
89 1 27.197314651873416 5.340205364931461 -0.016880060494706584 0 0 0
68 1 13.537889672147996 8.173010572872284 0.06668450517835112 0 0 0
92 1 29.79995955558172 8.14616867902943 0.04228920286988114 0 0 0
105 1 5.361202022536981 10.606614431173844 0.08403570456142262 0 0 0
433 1 32.59605606092767 0.079082212683268 16.37773257491419 -1 0 0
435 1 2.6991656394856225 0.027513855604019675 18.919913417718643 0 0 0
436 1 2.7351795163669315 2.7757143014467687 16.34677985044338 0 0 0
437 1 1.337329635035656 1.4728477578493764 17.751425547719435 0 0 0
442 1 5.453803720433709 2.7317909640809344 19.0576834292272 0 0 0
723 1 2.7039365983021355 0.017406727900542762 29.893483112812042 0 0 0
445 1 6.685206487319167 1.3699372175604614 17.635095888518574 0 0 0
450 1 10.873475605851626 2.643545175866637 18.911305274378954 0 0 0
453 1 12.31263880608587 1.379796041489386 17.563744876734585 0 0 0
458 1 16.296743651097913 2.676156849454851 19.063990443817005 0 0 0
461 1 17.636824399879696 1.3823643797961902 17.82004824945654 0 0 0