LAMMPS data file via write_data, version 19 Nov 2024, timestep = 60100, units = metal

1728 atoms
1 atom types

-0.018879553715706265 32.59887955371529 xlo xhi
-0.018879553715706265 32.59887955371529 ylo yhi
-0.018879553715706265 32.59887955371529 zlo zhi

Atom Type Labels

1 Si

Masses

1 28.0855

Atoms # atomic

572 1 29.751971140806692 13.469446920881708 16.145535556233014 0 0 0
2 1 32.56902280365781 2.734746766075693 2.6994450638022762 -1 0 0
4 1 2.6543200428328357 2.731916276172489 0.002794549344372417 0 0 0
5 1 1.357972827769583 1.3597987558876736 1.373556482424217 0 0 0
10 1 5.3236977391598925 2.662429995241798 2.754063828958333 0 0 0
299 1 8.151003337959303 0.051441206796638994 13.583026835754593 0 0 0
13 1 6.735924207635314 1.3010701749022875 1.4215511725321357 0 0 0
17 1 10.893496589281316 0.05404422488033365 0.05742201244724608 0 0 0
18 1 10.773177431459569 2.7958603449132626 2.8931651976295347 0 0 0
426 1 27.17426507248575 13.547237568206171 13.445621204013838 0 0 0
21 1 12.237598159660314 1.4190534119079665 1.447853443183167 0 0 0
26 1 16.328049159084987 2.759217584559192 2.724235386116752 0 0 0
29 1 17.686050906191586 1.3061827642661257 1.3251151770468201 0 0 0
307 1 13.60280902688514 0.01352365415662149 13.563177644504483 0 0 0
34 1 21.773744268941275 2.5809509741057313 2.6495748410284157 0 0 0
37 1 23.088272178895952 1.1663240174201568 1.2312263504250132 0 0 0
430 1 28.59091584722448 14.942747869844599 14.72797928708675 0 0 0
42 1 27.07675004200636 2.608640648171986 2.6292076334151155 0 0 0
45 1 28.64441006219047 1.2377175178146906 1.3318210969139679 0 0 0
564 1 24.505927439221765 13.625959629279093 16.262604060310935 0 0 0
51 1 2.669972321409237 5.376743018945385 2.6725006283140735 0 0 0
8 1 3.9603934571184003 4.033244433048552 1.3089583468592574 0 0 0
1337 1 27.23170673210681 16.226586326576065 16.24764956109001 0 0 0
59 1 8.037008648143352 5.400034243627977 2.6308854351475968 0 0 0
16 1 9.506494397980513 4.034468494535081 1.3496566100083718 0 0 0
67 1 13.68439430053083 5.493985775076215 2.8149006429224745 0 0 0
24 1 14.915867254521135 4.0676363145414856 1.3539817545839132 0 0 0
73 1 16.24513451064573 5.420221098570189 0.008350627625362166 0 0 0
32 1 20.42541940031944 3.9301655834669855 1.3014912980753233 0 0 0
75 1 19.084740934208572 5.409554698932508 2.6682910384243352 0 0 0
40 1 25.716675329488233 4.039724213672853 1.3226672380292555 0 0 0
83 1 24.468890370521084 5.3468087302410785 2.752216698327391 0 0 0
89 1 27.16355385128375 5.407149980840378 0.06769056731432889 0 0 0
1187 1 24.56831837923505 16.275055874993146 13.526452784928159 0 0 0
48 1 31.1819610295262 4.036785187125508 1.3443010368017387 0 0 0
91 1 29.823702937607496 5.39332644166628 2.852753285503948 0 0 0
52 1 2.576859487148918 8.15614133982835 0.057587934355399634 0 0 0
53 1 1.2652290651341895 6.700871713493551 1.324456594324075 0 0 0
56 1 4.0362357474320785 9.417713518083595 1.4440817622173316 0 0 0
58 1 5.423487694721508 8.147131752373893 2.719826974919317 0 0 0
305 1 10.848231566946295 0.06250479970493927 10.76498553707248 0 0 0
61 1 6.69280442079547 6.706360931045709 1.279937982671107 0 0 0
64 1 9.389612272609863 9.428340602526582 1.1633401682792475 0 0 0
66 1 10.814452307310837 8.115039627963005 2.626643043519607 0 0 0
68 1 13.627615651939678 8.167617273742417 0.04265258355012258 0 0 0
69 1 12.285064281320409 6.738234093072618 1.3976299559890157 0 0 0
72 1 15.017659777349706 9.477791735211316 1.3681068259270481 0 0 0
74 1 16.38771519908802 8.163828382742626 2.7211504616401587 0 0 0
77 1 17.7052988425655 6.759019792473778 1.4086458142549918 0 0 0
76 1 19.050408272062747 8.102823431561855 -0.014528091326602096 0 0 0
80 1 20.446282756117455 9.412698775866899 1.2891612029360764 0 0 0
82 1 21.8299399258273 8.082692753274342 2.687466022263522 0 0 0
85 1 23.189735534334048 6.663754423942513 1.327116389128243 0 0 0
171 1 18.98913426303476 -0.018646500225038665 8.143264248524968 0 0 0
88 1 25.75679949066157 9.388564519607208 1.32831689977917 0 0 0
90 1 27.13587844930961 8.084245413452274 2.7876027911331387 0 0 0
93 1 28.533527806401196 6.728880330648341 1.4121895049721698 0 0 0
50 1 0.00784142193235482 8.046442242797479 2.7430878172227056 0 0 0
92 1 29.85438805254861 8.244964441118599 0.027777922650988194 0 0 0
96 1 31.244967385771126 9.559158166198175 1.498436154279249 0 0 0
99 1 2.7127822855425405 10.817734559987311 2.7218710574802754 0 0 0
101 1 1.4128884077979085 12.282421952846294 1.3728602252691402 0 0 0
107 1 8.188920290141457 10.791391700247363 2.6346089786060043 0 0 0
109 1 6.785375570807421 12.114561934793805 1.3205853730684032 0 0 0
185 1 27.120562294676873 0.012735139580790644 5.488024206120145 0 0 0
115 1 13.54533807215509 10.887511731143945 2.5288399906437777 0 0 0
117 1 12.180341644733845 12.219173205499766 1.2427067998926749 0 0 0
121 1 16.37199391136126 10.871839922615864 0.05463393147214828 0 0 0
125 1 17.74796211772204 12.136290932157765 1.3921613158032824 0 0 0
123 1 19.087943746427296 10.795174359805086 2.7134919295692934 0 0 0
169 1 16.281230715496676 0.01660169078145657 5.394075190219919 0 0 0
133 1 23.147187347067394 12.24587350153995 1.2618518867660886 0 0 0
131 1 24.43078031324765 10.859773619442828 2.712639401627131 0 0 0
141 1 28.45776714971569 12.283582729322472 1.3215438000408581 0 0 0
139 1 29.795013235682326 10.899448283443169 2.737453577543867 0 0 0
98 1 0.06975217619770097 13.637873824635014 2.6961500078576686 0 0 0
104 1 4.134660645671791 14.914311440566731 1.3526450996956034 0 0 0
106 1 5.514609985211102 13.53557907248202 2.7053204651675595 0 0 0
1033 1 16.35368644217317 16.240112671620146 5.372176770712915 0 0 0
875 1 8.070050495989417 16.23988607120869 2.713239347672479 0 0 0
112 1 9.444720793499267 14.91408433954457 1.3004502788072823 0 0 0
114 1 10.869054448177907 13.606201767536895 2.7011927656839547 0 0 0
881 1 10.850334452490305 16.256662570134623 0.0036867599792710626 0 0 0
1009 1 32.50824751243822 16.282980557127235 5.378362231607759 -1 0 0
418 1 21.831995531901093 13.533002249183646 13.610486366442668 0 0 0
120 1 14.927020646268272 14.829757447363846 1.331075100280303 0 0 0
122 1 16.27392303985396 13.559949994531383 2.7299295577478704 0 0 0
128 1 20.3472727564237 14.923974491185263 1.3584838984152952 0 0 0
422 1 23.159833454374112 14.996421951387774 14.927490806073042 0 0 0
130 1 21.760288815719658 13.615041129072997 2.7228280327920373 0 0 0
3 1 2.740798652386556 0.034196832731652194 2.6941073713662496 0 0 0
899 1 24.507434425875427 16.267410904977634 2.7048007069161883 0 0 0
136 1 25.7156245043993 14.824692635618911 1.2614250471770372 0 0 0
138 1 27.17480259742575 13.685862360044242 2.6729843445437047 0 0 0
140 1 29.924916141062326 13.580743613061943 0.037379155184034146 0 0 0
144 1 31.270589669708038 15.03030141088364 1.3567545647132806 0 0 0
1179 1 19.07319201047494 16.2712859354499 13.484301848188437 0 0 0
1155 1 2.71770577438186 16.233520205406748 13.619414469606681 0 0 0
148 1 2.628575608625954 2.703997727539891 5.452519731796786 0 0 0
7 1 4.019543188500086 1.2587085098131394 4.261112582312286 0 0 0
156 1 8.077722833608787 2.647710522428048 5.418896435656968 0 0 0
15 1 9.488592668238052 1.256797533700968 4.124719677862381 0 0 0
164 1 13.541368310139106 2.792323417873647 5.435239603616926 0 0 0
23 1 14.955453747961819 1.2955341353280463 4.096751496343682 0 0 0
31 1 20.40648126098202 1.2135322933530575 4.055962490908312 0 0 0
172 1 18.99099581632299 2.6103309564196264 5.281784823398771 0 0 0
39 1 25.81664032672225 1.2017601783903253 3.989101496012799 0 0 0
180 1 24.426811051391848 2.513549777963721 5.336410104453277 0 0 0
410 1 16.308706665033814 13.637238483960981 13.469280029971596 0 0 0
47 1 31.15766195536671 1.3263761842396635 4.062421885853763 0 0 0
188 1 29.851288622008404 2.6847538243890927 5.4854022294155875 0 0 0
6 1 1.3034033533652052 4.016875069766213 4.075389762210202 0 0 0
201 1 5.341499029493333 5.358178998057123 5.429544676314575 0 0 0
14 1 6.73789942068304 4.058886230581578 4.075923889057958 0 0 0
209 1 10.827905860382659 5.4817810629977695 5.447415757757036 0 0 0
22 1 12.211663833414702 4.20767526351552 4.150598425176063 0 0 0
30 1 17.66843809004287 4.087196273236016 4.055934317610462 0 0 0
217 1 16.318146718142433 5.399900072312169 5.436314360441159 0 0 0
38 1 23.135287026654613 3.9216573738795213 4.044415924031111 0 0 0
225 1 21.730136158006083 5.354611845601117 5.351667112468509 0 0 0
46 1 28.393922107290454 4.0122214570081765 4.070261369411854 0 0 0
233 1 27.07669611813276 5.385199645366459 5.447533777571008 0 0 0
193 1 0.07118079400886757 5.425734739172748 5.432452532018048 0 0 0
54 1 1.2651042624420374 9.4864465903443 4.040622744957915 0 0 0
196 1 2.6806674708872853 8.097127133221516 5.3896839503710945 0 0 0
55 1 4.063797843347022 6.819443766264987 4.078606902655463 0 0 0
62 1 6.789165958482319 9.47910122606068 4.020427736730729 0 0 0
204 1 8.07404210204582 8.182208848278934 5.4009968210261725 0 0 0
63 1 9.454434771093638 6.778486368204124 4.014795403758072 0 0 0
70 1 12.308505854594866 9.492915921663831 3.883486726405532 0 0 0
212 1 13.64731727694742 8.17077605942723 5.362869708116685 0 0 0
71 1 15.02002579466486 6.817024421846302 4.111202977608104 0 0 0
78 1 17.695176987085482 9.533908946111243 4.097137139143912 0 0 0
79 1 20.399180622270755 6.801556008758378 4.029762992774282 0 0 0
220 1 19.029302249649724 8.19441464628532 5.3842080577673705 0 0 0
86 1 23.193540063162924 9.49486689758834 4.110242658889593 0 0 0
87 1 25.791408499578303 6.6705886510237296 4.043190102302908 0 0 0
228 1 24.51255820445772 8.140931304716599 5.4434793504984365 0 0 0
94 1 28.44086699620609 9.449002698997067 4.10428214311378 0 0 0
95 1 31.184514368364095 6.722771793830522 4.153419778512084 0 0 0
236 1 29.799544840130704 8.08284717048283 5.434123382122894 0 0 0
103 1 4.049867870758267 12.232589373526837 4.052785977194949 0 0 0
249 1 5.503141867963411 10.903153088597174 5.331249278490853 0 0 0
111 1 9.527273565547064 12.149112573005599 4.045187076210067 0 0 0
257 1 10.913401859370541 10.763230431242706 5.3727793715122125 0 0 0
119 1 14.918784820883655 12.218843646636934 3.9928282375600896 0 0 0
265 1 16.316648510926232 10.958438420426571 5.34964339070051 0 0 0
127 1 20.549149042140204 12.21644668401562 4.152381015193721 0 0 0
273 1 21.843481858420013 10.764281509755122 5.552360194726426 0 0 0
135 1 25.763433680758737 12.274974701621334 4.000406042109069 0 0 0
281 1 27.02407436937886 10.852720168063321 5.487934134513596 0 0 0
241 1 32.57472028295047 10.870725680717431 5.436650120818626 -1 0 0
143 1 31.236045692410055 12.353376291314177 4.056768422407934 0 0 0
102 1 1.4246134967509119 15.020636823618092 4.040515517588458 0 0 0
244 1 2.687987737256632 13.552951978073274 5.454324687431226 0 0 0
1017 1 5.31485006489032 16.27696763811864 5.522570998297944 0 0 0
110 1 6.729408167465121 14.93811001589401 4.155939972732453 0 0 0
252 1 8.201804560324318 13.576004738805025 5.468570588369334 0 0 0
1025 1 10.851392793825749 16.280283611442606 5.370088630196934 0 0 0
118 1 12.266269092591205 14.97642495795398 4.0462602894944375 0 0 0
260 1 13.569633558390107 13.61010132549037 5.353700078922687 0 0 0
126 1 17.732757524803624 14.89671404678218 4.031583194579938 0 0 0
268 1 19.104472777250407 13.516133470259572 5.488108164021774 0 0 0
134 1 23.070895443138934 14.960168220369095 4.1001781814508576 0 0 0
276 1 24.39127552388068 13.587665895486024 5.478701504593382 0 0 0
142 1 28.49105611433342 15.04937985811445 4.01353648010556 0 0 0
284 1 29.855334925522186 13.69239884369503 5.338038923448993 0 0 0
146 1 32.52273708090489 2.7244584326172148 8.166985893092685 -1 0 0
149 1 1.269004858984684 1.2967127658444557 6.811419946833823 0 0 0
151 1 4.0278406470485155 1.3231445969364581 9.535474181376308 0 0 0
154 1 5.455705591833752 2.586734199888551 8.166064601993808 0 0 0
155 1 8.162508691763872 -0.004124945584779773 8.194981687000713 0 0 0
157 1 6.759364233455513 1.234097895394659 6.812389920344023 0 0 0
159 1 9.45211747931307 1.4278832925856233 9.44122058103879 0 0 0
162 1 10.77889898056489 2.6599774970913543 8.120894158975918 0 0 0
414 1 17.6251719508993 14.97632991935529 14.776383862693793 0 0 0
165 1 12.184765312990486 1.3911672596548053 6.848330040038482 0 0 0
167 1 14.870564449343842 1.3145852920607686 9.393610912214143 0 0 0
170 1 16.29173335946416 2.721298555136022 8.18497518601222 0 0 0
173 1 17.660088032445998 1.4100154709492916 6.732700744817841 0 0 0
175 1 20.325756676217246 1.387521539694374 9.566808829865726 0 0 0
178 1 21.657577274594523 2.722886689272352 8.113598172025291 0 0 0
181 1 22.990995567410693 1.1903103130586787 6.721486919818509 0 0 0
183 1 25.657774636048295 1.236862385528188 9.533838941083745 0 0 0
186 1 27.081131533548714 2.784043136519908 8.287167501713672 0 0 0
189 1 28.447436956408332 1.3981127795740935 6.843233272671171 0 0 0
427 1 29.89489303247543 10.796046034111074 13.507188280921731 0 0 0
191 1 31.1673186574319 1.31136289745009 9.530083438401752 0 0 0
150 1 1.31952321244149 4.01029096552542 9.546964447800281 0 0 0
195 1 2.6759984515893906 5.412446730701225 8.170168221833864 0 0 0
152 1 4.067588956431595 4.006958063420568 6.894237053131798 0 0 0
158 1 6.725818135391175 4.070792374948204 9.530488021193555 0 0 0
203 1 8.128430653576634 5.422102769729957 8.098515607174821 0 0 0
160 1 9.44204475078119 4.056585255859419 6.781785578992761 0 0 0
166 1 12.172861521560277 4.1461701013671535 9.424918156804754 0 0 0
211 1 13.473273059218371 5.535012692945803 8.145709871827616 0 0 0
168 1 14.881998112361158 4.120640843942971 6.867116089769688 0 0 0
174 1 17.63012332773883 4.054270707156168 9.512962870393698 0 0 0
176 1 20.24094444343438 4.093808761323496 6.663814047896821 0 0 0
219 1 18.99414235255707 5.372505252633483 8.05828643452023 0 0 0
182 1 23.076661164695746 4.0040140096058865 9.5307115689963 0 0 0
184 1 25.741513736532443 3.9638566682555645 6.768550665201274 0 0 0
227 1 24.391609921162097 5.268751815674474 8.07961421853408 0 0 0
190 1 28.492535426801393 4.0442700394861975 9.508961696958501 0 0 0
192 1 31.299793257288787 4.061386650065654 6.793194969538012 0 0 0
235 1 29.831384543022217 5.370650942792133 8.128790204057927 0 0 0
197 1 1.356724988733857 6.779480525933724 6.776392216659839 0 0 0
198 1 1.3655423766343913 9.636183234923704 9.440219639493469 0 0 0
199 1 4.0310882119472495 6.868729875651314 9.576018078134679 0 0 0
200 1 4.113546583515083 9.534173537932515 6.671421067226793 0 0 0
202 1 5.421217914844982 8.20536120042701 8.220738369610027 0 0 0
205 1 6.728666170994939 6.836912595025242 6.7672200355919685 0 0 0
206 1 6.688705293954418 9.531126941105944 9.541405032278702 0 0 0
207 1 9.467176979619248 6.807565948184263 9.437534577023762 0 0 0
208 1 9.473624916868975 9.52079000169561 6.699446700653777 0 0 0
210 1 10.795331065063088 8.204924242363234 8.119043265039402 0 0 0
213 1 12.179763183031556 6.971211844020506 6.729684729310079 0 0 0
214 1 12.260688424454505 9.540212290098046 9.294256354817971 0 0 0
215 1 14.958366485438324 6.778241736987845 9.482153242223673 0 0 0
216 1 15.021653253983851 9.498985926693443 6.636379541725747 0 0 0
218 1 16.284955512356344 8.18879327342738 8.173470006453183 0 0 0
221 1 17.679732040545886 6.832204045662621 6.743117470476482 0 0 0
222 1 17.701428448704437 9.480804675338202 9.639289197318737 0 0 0
223 1 20.32819171639913 6.7048095543180715 9.55770722260139 0 0 0
224 1 20.402715408960994 9.459175751002403 6.812649230207324 0 0 0
226 1 21.6848380771734 7.965464836560392 8.127598655793525 0 0 0
229 1 23.11358271913129 6.689836198297455 6.760595993921385 0 0 0
230 1 23.002139411480876 9.386896561618018 9.455149830441913 0 0 0
231 1 25.669243584363784 6.634879527490051 9.449856934973322 0 0 0
232 1 25.600478341067316 9.506997971550033 6.863597120050587 0 0 0
234 1 26.99191840572178 8.095192317258201 8.195482194417147 0 0 0
237 1 28.462354087513283 6.778478105002554 6.794586805431471 0 0 0
238 1 28.46584796396794 9.41484965221623 9.531041986916204 0 0 0
194 1 0.0038808081601899858 8.138378294568726 8.099300982537168 0 0 0
239 1 31.254186687936688 6.671059961745451 9.459984091886563 0 0 0
240 1 31.214634800507305 9.404820594280041 6.7821724731774085 0 0 0
243 1 2.794796503700096 10.875935094219152 8.139051056075914 0 0 0
245 1 1.2985286244434104 12.24274414318358 6.83030624084963 0 0 0
247 1 4.031034198806829 12.311946803354207 9.527799204061635 0 0 0
251 1 8.161123655286218 10.784243353502294 8.216007777117982 0 0 0
253 1 6.921159187062984 12.206258555678787 6.724698743783265 0 0 0
255 1 9.5113052746351 12.173697317401542 9.423267034317284 0 0 0
259 1 13.677750130298932 10.91928283433874 7.961776192595974 0 0 0
261 1 12.227248904872736 12.144290258401075 6.661383807684027 0 0 0
263 1 15.011138247754504 12.175244682182955 9.394490752360891 0 0 0
269 1 17.72820178340319 12.145267866399184 6.813051995770087 0 0 0
267 1 19.048168458313267 10.764205566079562 8.192277000195874 0 0 0
271 1 20.479340793419816 12.243607416085556 9.471189934002544 0 0 0
277 1 23.162708886799102 12.184978067355551 6.8906026932671205 0 0 0
275 1 24.485993632567894 10.756398744640599 8.298495950189588 0 0 0
279 1 25.81498548615917 12.197061140918352 9.531067590979807 0 0 0
285 1 28.540003193947417 12.225183197206919 6.7713760972587265 0 0 0
283 1 29.846546027461304 10.686309969452214 8.171686659446815 0 0 0
287 1 31.12388496399502 12.244259994426743 9.49287144835439 0 0 0
246 1 1.336820315206533 14.975178716965596 9.510460244990021 0 0 0
406 1 12.248958073955373 14.83775607938635 14.999785208597164 0 0 0
248 1 4.016706027769887 14.900654206017654 6.8649355114307165 0 0 0
250 1 5.437631363780281 13.507224044362895 8.090334459715132 0 0 0
254 1 6.716719465112548 14.910476635645365 9.445986456679135 0 0 0
1019 1 8.075745541799064 16.25980216421258 8.139920194959222 0 0 0
256 1 9.562429170576761 14.995700162589522 6.865607234987452 0 0 0
258 1 10.91990360199668 13.491747846620356 8.108230893579556 0 0 0
262 1 12.311307429318983 14.948205319345481 9.39078654358745 0 0 0
1171 1 13.593182476900207 16.28632769839661 13.599394107773087 0 0 0
264 1 14.95224713965664 14.857913170927219 6.752847586732514 0 0 0
266 1 16.407425306783004 13.628218277022013 8.161920002003079 0 0 0
270 1 17.65196115837449 15.021569842961133 9.549239339887613 0 0 0
272 1 20.49830557364498 14.989757201873102 6.819418314401455 0 0 0
402 1 10.903630937728996 13.561738414114654 13.545144283125566 0 0 0
274 1 21.825934886515565 13.587933755586215 8.213817836809524 0 0 0
278 1 23.20611570789817 14.948236715268298 9.481608841930633 0 0 0
431 1 31.239717845254184 12.133903639041032 14.762048227365272 0 0 0
280 1 25.799368084226675 14.956144865079432 6.73974310343733 0 0 0
282 1 27.161835634016917 13.631591393377256 8.203564044557053 0 0 0
286 1 28.472553221945184 15.01928211759898 9.442933758229065 0 0 0
398 1 6.76766201060776 14.840354908487102 14.997707307746852 0 0 0
242 1 32.486700605988936 13.653513599113985 8.187481272840868 -1 0 0
288 1 31.11153716527886 15.039847348973378 6.791821973154396 0 0 0
292 1 2.7659661076756987 2.7660948248683 10.864035136349733 0 0 0
293 1 1.366832856590694 1.4238987064544202 12.19692731800579 0 0 0
300 1 8.1449613510861 2.714447849272207 10.874467556243323 0 0 0
301 1 6.7811320735467175 1.3271964119398654 12.177154964219334 0 0 0
308 1 13.567364401653474 2.785417525624911 10.825801601558053 0 0 0
309 1 12.225684528336828 1.367563939218193 12.201259653360655 0 0 0
313 1 16.273006524026755 -0.004391461001704934 10.820827942612826 0 0 0
317 1 17.665610427192995 1.2688561675317938 12.339295842757982 0 0 0
316 1 18.924372402258392 2.618487988358375 10.880484777736681 0 0 0
325 1 22.89157789988447 1.2995693820908565 12.257126025620364 0 0 0
324 1 24.312850814302443 2.6098676810556127 10.93183861745579 0 0 0
1163 1 8.092989879557683 16.187793948656985 13.56812350816731 0 0 0
333 1 28.400672741658415 1.2878261040625116 12.239245947949861 0 0 0
289 1 32.545575808996645 -0.00022624779478331962 10.87174979899088 -1 0 0
332 1 29.813199228014476 2.6375950589077912 10.93583649173041 0 0 0
337 1 0.016218917889420068 5.357598873904917 10.922586990243042 0 0 0
296 1 4.110241910583526 4.116140140653858 12.25268916108359 0 0 0
345 1 5.408237638445781 5.477037502245005 10.889810281839322 0 0 0
304 1 9.413429082775552 4.068377183931588 12.183455983553042 0 0 0
353 1 10.791835465621196 5.498523651693456 10.799129950156765 0 0 0
312 1 14.992187301867812 3.995308418533993 12.233211873656375 0 0 0
361 1 16.305022835570977 5.4644197596499025 10.784273880327254 0 0 0
320 1 20.246349649773943 4.118171343594018 12.23827357201013 0 0 0
369 1 21.659676771817015 5.294803170907793 10.909903306670664 0 0 0
328 1 25.715074999499237 4.00509774808276 12.21449104666521 0 0 0
377 1 27.097066291472157 5.401685624835307 10.818247752662552 0 0 0
336 1 31.17207441766857 4.020866432702167 12.242778800744611 0 0 0
340 1 2.6276102170009143 8.306463640370248 10.89103510341115 0 0 0
341 1 1.31454328194083 6.753898181267562 12.21845614749157 0 0 0
344 1 4.084154018116788 9.595182507692414 12.268949050152347 0 0 0
348 1 8.133564351377327 8.258428481761092 10.872140761485152 0 0 0
349 1 6.762516574721285 6.870378792473021 12.1709137136408 0 0 0
352 1 9.585440538112978 9.550988014902748 12.18670786886009 0 0 0
356 1 13.613238747761914 8.176386800125684 10.78647409658449 0 0 0
357 1 12.274803343656343 6.848168068229965 12.138844157530308 0 0 0
360 1 14.909338809778875 9.522779869270286 12.225844142201012 0 0 0
365 1 17.67060838318668 6.75589741228892 12.266632349512173 0 0 0
364 1 18.984537710339307 8.081306000436133 10.892627128578614 0 0 0
368 1 20.36831552787525 9.531333192070248 12.181811481211659 0 0 0
373 1 23.038586602359562 6.743504868238027 12.245244276473626 0 0 0
372 1 24.407735863771453 8.049069961196558 10.842302913020722 0 0 0
376 1 25.699090544623477 9.394718341824051 12.189890242547877 0 0 0
381 1 28.50840443198175 6.719534687532122 12.130996333272337 0 0 0
380 1 29.91638935394075 8.045024380334787 10.749308575482834 0 0 0
384 1 31.228767905570642 9.424933009131713 12.141994013302378 0 0 0
385 1 -0.014884695486711046 10.946900889754236 10.901729027254085 0 0 0
389 1 1.3204560344490763 12.314119512709729 12.264853955033969 0 0 0
393 1 5.3766942492213134 11.010685549369253 10.929274915056515 0 0 0
397 1 6.827332909388149 12.222723263536423 12.235751688991286 0 0 0
401 1 10.921095900549089 10.922903032650394 10.77488545191167 0 0 0
405 1 12.353321866516966 12.222425213990311 12.145835317019586 0 0 0
409 1 16.30918427053511 10.824383247714808 10.823731868916674 0 0 0
413 1 17.657306918200234 12.246070332861276 12.192492661011972 0 0 0
417 1 21.672040780171617 10.83859088223273 10.786083465545284 0 0 0
421 1 23.104240099845658 12.180042364658865 12.134100382323181 0 0 0
425 1 27.12568813550205 10.753696086087151 10.871683445175469 0 0 0
429 1 28.505831332733415 12.124060403249954 12.159996397525566 0 0 0
388 1 2.666003417384494 13.670668886764865 10.840965418778726 0 0 0
1161 1 5.402147161551118 16.28071659682785 10.788131635755361 0 0 0
392 1 4.152152382868759 14.939553200988762 12.198977918216226 0 0 0
396 1 8.129280763487369 13.548451821577677 10.853703919189549 0 0 0
1169 1 10.86061752375939 16.226758439658003 10.780644068814148 0 0 0
400 1 9.422900341127496 14.789482694642347 12.217430101991951 0 0 0
404 1 13.691415536666227 13.579498765207738 10.787240725234106 0 0 0
408 1 14.964466504715368 15.098270243209473 12.176204727782338 0 0 0
412 1 19.08663497377141 13.592536754430903 10.815300075060021 0 0 0
416 1 20.485538366223615 14.927294819477003 12.291290596445105 0 0 0
394 1 5.362030392126801 13.50829748920935 13.611277058839326 0 0 0
420 1 24.52587000389884 13.493759885336015 10.80308211651501 0 0 0
424 1 25.879565245083132 14.91716184533338 12.143541377479368 0 0 0
569 1 27.16764535013167 10.80408903526287 16.202178102618603 0 0 0
386 1 32.5290481971632 13.689686187991787 13.580598050648428 -1 0 0
428 1 29.77026266013967 13.629584172108572 10.809201196560974 0 0 0
432 1 31.21441795770778 14.997569301157972 12.137844857824232 0 0 0
290 1 32.573660844327954 2.7687477486405574 13.601163710847278 -1 0 0
390 1 1.293965309794849 14.953024020671826 15.040174761925133 0 0 0
295 1 4.0751718056409985 1.2765381570612353 14.901009885524264 0 0 0
298 1 5.434481219794758 2.7418923807975353 13.586393519975033 0 0 0
303 1 9.579455696678586 1.3907803824247498 14.93521627374571 0 0 0
306 1 10.900223465788674 2.7630200297497427 13.560869124496762 0 0 0
311 1 14.971592756752482 1.3192270900538254 14.95041047885203 0 0 0
314 1 16.333963088681976 2.684297855605548 13.590001016712044 0 0 0
319 1 20.32691709053813 1.2897697140871538 14.978717989881758 0 0 0
322 1 21.604037590784063 2.7697058932483767 13.51643897320691 0 0 0
327 1 25.768593405640512 1.413875648138305 14.908010772145389 0 0 0
330 1 27.17189533307246 2.753129663429252 13.632393748753922 0 0 0
331 1 29.7339467992516 -0.014725293795272348 13.692050767658746 0 0 0
335 1 31.17614557021846 1.426059315611855 14.980506559740594 0 0 0
419 1 24.34597723234829 10.770693224548774 13.627906777657554 0 0 0
294 1 1.3948257506251798 4.0587992542283375 14.953629446704017 0 0 0
339 1 2.6628420542140687 5.417259950296543 13.614242186956721 0 0 0
423 1 25.8106633829514 12.170759707793376 14.864924491316241 0 0 0
302 1 6.782108974896307 4.130806378889512 14.923659178711432 0 0 0
347 1 8.09682148357979 5.525028281322481 13.531753883631513 0 0 0
561 1 21.677120203794452 10.980237183224288 16.28117669718602 0 0 0
310 1 12.26844096525919 4.117249674572696 14.931728478772579 0 0 0
355 1 13.547867321160586 5.4543110557559915 13.488767576850384 0 0 0
318 1 17.641998778559387 4.068087206501358 15.05737132102967 0 0 0
363 1 18.939287641333234 5.40427163601946 13.670345888340039 0 0 0
326 1 22.92775414280333 4.126078144562945 14.833187822678173 0 0 0
371 1 24.33769316450533 5.445601466130631 13.592495714607345 0 0 0
334 1 28.525517059758876 4.047191782933917 14.994134045198718 0 0 0
411 1 19.07695179326051 10.94715208806403 13.521487236212234 0 0 0
379 1 29.870400121407755 5.425368126768944 13.581963335727261 0 0 0
481 1 0.020074327974789696 5.4024860990746175 16.20590793873121 0 0 0
338 1 32.58814390624069 8.163627116491606 13.465482546378361 -1 0 0
342 1 1.3494011084947426 9.484431479203971 14.94434205852201 0 0 0
484 1 2.7509673012640845 8.16685772223449 16.28479340744305 0 0 0
343 1 4.066807436067226 6.817639405174797 14.93266151365082 0 0 0
346 1 5.443691397239015 8.16930691841293 13.58364608179805 0 0 0
350 1 6.851831769718809 9.447959043433643 15.045329323410657 0 0 0
351 1 9.558984770267744 6.814413991092424 14.953166296754375 0 0 0
354 1 10.931001012424144 8.14671826641872 13.57423724466593 0 0 0
358 1 12.238865429732535 9.441587580251085 14.931210935100873 0 0 0
500 1 13.549527032594119 8.037282708116626 16.267176337805335 0 0 0
359 1 14.926388696065771 6.720804304326366 14.953822481608045 0 0 0
362 1 16.299043566579186 8.11691809728691 13.56313496483197 0 0 0
366 1 17.619199459189048 9.538166855337165 14.841311662835828 0 0 0
367 1 20.375940372514084 6.818163677958874 15.008006423552324 0 0 0
370 1 21.667325677793375 8.20520486378521 13.631297605210548 0 0 0
374 1 22.99592033830425 9.515369474554092 15.019795759835887 0 0 0
375 1 25.81124046101851 6.703722590341508 14.957242571063235 0 0 0
415 1 20.295198260285126 12.389609383032996 14.933637836460296 0 0 0
378 1 27.161867736106636 8.062342264127327 13.502559096560786 0 0 0
382 1 28.487724412966287 9.4853326757741 14.811863600616027 0 0 0
383 1 31.257523683962766 6.8560989816462055 14.892866989814454 0 0 0
524 1 29.906206125921166 8.210934563551195 16.280302182453767 0 0 0
387 1 2.6328150000217825 10.87731687231438 13.563885534454917 0 0 0
391 1 3.961209287762235 12.220859097367159 15.03385664345257 0 0 0
395 1 8.212130174516128 10.931620603183623 13.63205051539014 0 0 0
399 1 9.579314035325568 12.2032395546566 15.043295273478968 0 0 0
545 1 10.97818222771551 10.832947119562876 16.28589065730425 0 0 0
403 1 13.572716443847705 10.877761206375764 13.549897264291388 0 0 0
407 1 14.954878015785619 12.221665251942438 14.913293792596317 0 0 0
444 1 8.04832437172336 2.672347782038837 16.259938801754334 0 0 0
905 1 27.18406928276828 16.223375417514507 -0.010786614360945634 0 0 0
452 1 13.5851521721589 2.7345140611099863 16.16702570766427 0 0 0
468 1 24.34464284009042 2.8114581766375126 16.10829268508262 0 0 0
537 1 5.307541520563148 10.803883063714348 16.27903587804135 0 0 0
124 1 18.982104241815275 13.442760957894231 0.008492941622684214 0 0 0
108 1 8.177164793841303 13.455736930062958 -0.00017498429625106837 0 0 0
97 1 0.011740413366126745 10.892171499658406 -0.009977349749476616 0 0 0
20 1 13.570324729885703 2.6932173365429617 0.00723983283128149 0 0 0
137 1 27.134880350114468 10.822833637639246 -0.006260976961456777 0 0 0
44 1 29.964155204789012 2.61845597915804 -0.008384340071273755 0 0 0
65 1 10.901724908046257 5.444301707333621 0.11968955799017067 0 0 0
81 1 21.897467811723015 5.397781538378251 0.002531958236559717 0 0 0
105 1 5.483042657100814 10.734637967952601 0.06765634863691616 0 0 0
433 1 0.023674808619500054 0.1404413438123252 16.34049248455884 0 0 0
435 1 2.6797025066619273 -0.013653182783446148 19.113271891051234 0 0 0
436 1 2.739544119515169 2.717894765007495 16.312361690683623 0 0 0
437 1 1.3465329315353893 1.4397249752299637 17.721133321061362 0 0 0
818 1 0.09240242883808492 13.53020869413238 29.811306332546273 0 0 0
442 1 5.443963197867477 2.7028978336419414 19.054173550422288 0 0 0
1627 1 29.93977486762526 16.253861596251635 29.838474275579486 0 0 0
723 1 2.6741802074128636 -0.002684789424939993 29.921901730128237 0 0 0
445 1 6.750155454214175 1.2082536645399826 17.599505887328235 0 0 0
449 1 10.82735633293685 0.0003888346365907803 16.30453553535514 0 0 0
450 1 10.894376112794207 2.7132372799754845 18.93684799411234 0 0 0
1619 1 24.336156716893555 16.230279451218355 29.84034739431469 0 0 0
889 1 16.206756248745144 16.258405386527773 32.57261452916406 0 0 -1
453 1 12.284435055409581 1.2751152613667895 17.628803061269306 0 0 0