LAMMPS data file via write_data, version 19 Nov 2024, timestep = 60100, units = metal

1728 atoms
1 atom types

-0.03422879150768665 32.61422879150774 xlo xhi
-0.03422879150768665 32.61422879150774 ylo yhi
-0.03422879150768665 32.61422879150774 zlo zhi

Atom Type Labels

1 Si

Masses

1 28.0855

Atoms # atomic

572 1 29.89120056505885 13.635573084975295 16.255996358598455 0 0 0
4 1 2.7439064912740156 2.5490443932542353 0.08962736876549049 0 0 0
5 1 1.361935514656 1.3320228605984248 1.4667398701752996 0 0 0
10 1 5.478658429783672 2.772078502244294 2.6799083126076373 0 0 0
11 1 8.170625530827294 -0.019701492964184046 2.666213705438921 0 0 0
1195 1 29.872609898085457 16.235330100655183 13.541827470884417 0 0 0
13 1 6.797124549672759 1.3383646634525033 1.3390701727151455 0 0 0
18 1 10.82698343588218 2.686256697746615 2.6051022282079774 0 0 0
299 1 8.082568413260242 -0.021770799836303922 13.633212623646743 0 0 0
21 1 12.221513955956615 1.2845066871577986 1.2427554547653623 0 0 0
26 1 16.338932310334098 2.651232603476906 2.6951259463726522 0 0 0
29 1 17.59433096318639 1.2504885969176551 1.4911344369599226 0 0 0
34 1 21.65761926116546 2.8408996178562687 2.702072976256105 0 0 0
37 1 22.999482738409263 1.3739787870158078 1.3515084795362833 0 0 0
35 1 24.450869170207113 0.025521172182434243 2.6705517076668204 0 0 0
1179 1 18.950050360151398 16.28283576849963 13.63993592962134 0 0 0
42 1 27.05244107110448 2.719393409294079 2.63779760574298 0 0 0
45 1 28.511982023573506 1.4292965515860923 1.2826378885526077 0 0 0
2 1 -0.028404103545824455 2.6890552806557184 2.6831225240108787 0 0 0
43 1 29.79449318712491 0.0026304478320303324 2.636199005645052 0 0 0
51 1 2.7303769796099586 5.3043278882436375 2.609950311348734 0 0 0
8 1 4.130114737897572 4.055573171799895 1.252200396246312 0 0 0
57 1 5.428573858353674 5.443815350631115 0.014186616124811665 0 0 0
59 1 8.174459279676903 5.4643169242486245 2.622497072479569 0 0 0
16 1 9.488233691280152 4.11565608797062 1.2036928666810949 0 0 0
1297 1 0.03436597509579918 16.257828263416897 16.280811064754932 0 0 0
67 1 13.60862762989225 5.406080134918791 2.5414308342754146 0 0 0
24 1 14.988217365700542 3.9362333857210996 1.295229794290419 0 0 0
32 1 20.340052112829248 4.129326192058248 1.2263219902130762 0 0 0
75 1 19.097264577340244 5.463104209973603 2.6110184954610833 0 0 0
1155 1 2.6401884143878895 16.22936231424866 13.519119023339314 0 0 0
40 1 25.623534072201345 4.153529899969603 1.3120971367746044 0 0 0
83 1 24.363084079112713 5.518259010243182 2.636192243453066 0 0 0
48 1 31.301031689415055 4.138461036366413 1.2745903244553662 0 0 0
91 1 29.901934566224305 5.373007489654322 2.7717266838376267 0 0 0
50 1 0.00945233647264035 8.075107733314457 2.65134281451966 0 0 0
313 1 16.24445652483038 0.03061199564692174 10.872610360406938 0 0 0
53 1 1.4510064094448338 6.729826323675845 1.3012126944589608 0 0 0
56 1 4.042242393208018 9.553120668029532 1.1996791399528963 0 0 0
58 1 5.305996437133822 8.175326860217549 2.601424706789346 0 0 0
60 1 8.133262471438716 8.12711199004385 -0.009272050703197036 0 0 0
61 1 6.793131186260073 6.8008625644796785 1.3233530118543897 0 0 0
64 1 9.483934386503444 9.50446451868904 1.3797079995483208 0 0 0
66 1 10.914271322200323 8.158455284044638 2.732466876841645 0 0 0
69 1 12.28464170347265 6.771039882779063 1.3191544491402243 0 0 0
72 1 14.899411666269907 9.36278791605714 1.3481452501724576 0 0 0
74 1 16.356977397323217 8.125633281590186 2.713046250280151 0 0 0
77 1 17.702423420519217 6.799794599179322 1.357368240206721 0 0 0
80 1 20.296695051076426 9.480121169142029 1.2352277337699114 0 0 0
82 1 21.665544263667986 8.11831112550743 2.663674498592326 0 0 0
85 1 23.05667549092027 6.839544816165165 1.264151103667719 0 0 0
88 1 25.87066985147421 9.482156145358879 1.3167788726663354 0 0 0
90 1 27.242875080571828 8.107363955673124 2.6906365164347936 0 0 0
93 1 28.613229809792806 6.703517978050557 1.3180353408503334 0 0 0
96 1 31.267973941103104 9.314447747011048 1.3331345594687558 0 0 0
99 1 2.7224854269926593 10.826176290348753 2.6968825799392433 0 0 0
101 1 1.233270809294022 12.126817375083938 1.4288310399128454 0 0 0
1185 1 21.63578977641164 16.286708725970065 10.92884516127398 0 0 0
107 1 8.053623120657704 10.905639070047084 2.730783955955478 0 0 0
109 1 6.802025689806797 12.281403811212348 1.2422081404327334 0 0 0
115 1 13.638780513496872 10.799935105118792 2.7949371967926937 0 0 0
117 1 12.322761658874061 12.1795912116386 1.4710817200403132 0 0 0
121 1 16.343690051003833 10.774527550108624 0.01834489430124281 0 0 0
125 1 17.733981590413784 12.232966879603012 1.3198488143235798 0 0 0
123 1 19.011463052927557 10.840419922555974 2.6936925248195718 0 0 0
133 1 23.195482899691843 12.226348821211623 1.4042959326215825 0 0 0
131 1 24.50515382873867 10.82265960162524 2.7776813156612445 0 0 0
163 1 13.558113612097902 -0.028496910701434786 8.07621474726884 0 0 0
141 1 28.515880094838288 12.233966337362649 1.3154384928944336 0 0 0
139 1 29.90120650991365 10.749798856767041 2.624455127051637 0 0 0
867 1 2.655605279888141 16.28278746208873 2.5451280627161883 0 0 0
104 1 4.0792308332210965 14.886442559701784 1.2998077702381778 0 0 0
106 1 5.390270635218093 13.528898857973786 2.695798021595621 0 0 0
147 1 2.68784766907898 0.00923858087011098 8.104381528507549 0 0 0
875 1 8.212674897860914 16.27518760842272 2.6545896687264836 0 0 0
112 1 9.518134129674916 14.835691603529417 1.2338218775211263 0 0 0
114 1 10.858756601419248 13.623446653898577 2.6756238526399554 0 0 0
116 1 13.58357069014487 13.435741637129466 -0.004525231706306049 0 0 0
120 1 14.867368949847268 14.936918224955452 1.348822965827654 0 0 0
122 1 16.33357743323672 13.602418797075922 2.6731186179874182 0 0 0
128 1 20.47252831104522 14.90573718613658 1.2893658279074134 0 0 0
130 1 21.774912634170967 13.684210964516094 2.6713450398488137 0 0 0
136 1 25.802076635751376 15.028565784121312 1.3743462959028694 0 0 0
426 1 27.186997010946428 13.667873282187495 13.557322553167497 0 0 0
138 1 27.23051784302037 13.601790359581774 2.668124626257003 0 0 0
98 1 32.59086384138539 13.574949418641857 2.7437217526008557 -1 0 0
144 1 31.239385556202517 14.986560338137226 1.3885716559269903 0 0 0
430 1 28.556905355947535 14.956673575001311 14.940766140445188 0 0 0
148 1 2.6199986394662105 2.6796670713000608 5.293907540722439 0 0 0
7 1 4.115615530787451 1.3368719327209364 3.9698134420102855 0 0 0
153 1 5.408063287092379 -0.006580216567863159 5.34650224229243 0 0 0
156 1 8.11470670241986 2.7759780669576672 5.447594566237909 0 0 0
15 1 9.493568678532647 1.4126093665131678 4.001583255636486 0 0 0
164 1 13.533249834465028 2.7444544183226904 5.346505357173816 0 0 0
23 1 14.9470107752115 1.3912741377261544 4.047014245867648 0 0 0
31 1 20.400941485879308 1.4304093740172135 4.082937081714349 0 0 0
172 1 18.953791167686727 2.679967350319315 5.34355527542714 0 0 0
177 1 21.734817759978935 0.052021968344470385 5.408192268103497 0 0 0
39 1 25.814608467958827 1.3283214072453848 4.061407645630675 0 0 0
180 1 24.489273438901822 2.660220706600886 5.426496367854437 0 0 0
418 1 21.680174554748728 13.482277550811599 13.718312487664688 0 0 0
47 1 31.240123842921797 1.2363285276242046 4.008538207233822 0 0 0
188 1 29.932115178941135 2.630830539444354 5.310590824809569 0 0 0
6 1 1.2301602825110323 4.074865215067861 4.01717981273534 0 0 0
201 1 5.29918718290065 5.448938715832825 5.342207902281236 0 0 0
14 1 6.722369186004151 4.114636401899402 4.139460886670839 0 0 0
209 1 10.86295466378359 5.322766316028903 5.300257688480801 0 0 0
22 1 12.180580180691786 4.029559425411865 3.9138080110007407 0 0 0
30 1 17.606450495135775 4.043813727312679 3.9832680936163793 0 0 0
217 1 16.250901151621417 5.415253826680356 5.288781303114318 0 0 0
38 1 23.169945138139813 4.123883574263684 4.061114407353694 0 0 0
225 1 21.85905294133158 5.430997554371605 5.483120959803673 0 0 0
46 1 28.484990332190627 4.0026381927422285 4.068437406118542 0 0 0
233 1 27.192779162974063 5.360080723334394 5.4093314168725914 0 0 0
193 1 32.573560127280615 5.377126270091461 5.416238900988671 -1 0 0
54 1 1.2766585693601507 9.46651608381778 4.044334592192203 0 0 0
196 1 2.5906599577564107 8.065319899465075 5.379427610179311 0 0 0
55 1 3.9665208112664385 6.797944191738465 3.9370770823003793 0 0 0
62 1 6.656509512432611 9.566660508503988 4.166577717679514 0 0 0
204 1 8.129480763377236 8.155855883726517 5.415612405618099 0 0 0
63 1 9.474218047895285 6.729122843151746 4.0024909101166894 0 0 0
70 1 12.28973608706354 9.419500387943625 4.070123941596028 0 0 0
212 1 13.611674178617182 8.12416091919667 5.476408167919474 0 0 0
71 1 14.913518344558186 6.7493875630403215 4.042447163579176 0 0 0
78 1 17.720591645417706 9.415141964352035 4.059073300828776 0 0 0
79 1 20.385689872234142 6.794869605031833 4.101193428993142 0 0 0
220 1 19.015719721087947 8.04450331012581 5.548855688913633 0 0 0
86 1 22.998251986273004 9.433228265920128 4.052693400250479 0 0 0
87 1 25.803282945526806 6.720187802415549 4.012596075888372 0 0 0
228 1 24.48587351599995 8.059800415319677 5.431054092402474 0 0 0
94 1 28.528277738150923 9.451843287110085 3.9905109914649186 0 0 0
95 1 31.323717066367408 6.8303217197821136 4.060840524803691 0 0 0
236 1 29.906688185115634 8.187160641716 5.403011802490013 0 0 0
103 1 4.1194354010165934 12.136413178802941 4.081324928168473 0 0 0
249 1 5.296352231089795 10.826667395170947 5.525961088347929 0 0 0
111 1 9.480336018196516 12.218476400846562 4.085930550883385 0 0 0
257 1 10.941765069688135 10.910936365288814 5.395555633905933 0 0 0
119 1 14.947811105326894 12.256361815090056 4.097390003224701 0 0 0
265 1 16.334928646392683 10.804011727166033 5.391598939898101 0 0 0
127 1 20.341258276761497 12.247805593313187 3.90705772226032 0 0 0
273 1 21.595547260062315 10.84595101172383 5.335259774177641 0 0 0
135 1 25.878329185671834 12.2507115263562 4.1061462502482975 0 0 0
281 1 27.11494766959706 10.840785859061219 5.442138746041737 0 0 0
241 1 32.552042480873105 10.864731295300256 5.385753749842178 -1 0 0
143 1 31.161219172284994 12.273408396956334 4.0568691960982655 0 0 0
102 1 1.3558508359943229 14.941157827398385 3.961476078159012 0 0 0
244 1 2.792010463574991 13.58068509868152 5.378738846030062 0 0 0
1009 1 32.6107742206168 16.22898896861679 5.374973251292704 -1 0 0
422 1 23.096769238348866 14.94516244789981 14.955261645116634 0 0 0
110 1 6.692926398072744 14.990110877902971 3.9916294952760634 0 0 0
252 1 8.118252202873075 13.617063653920784 5.419148078569576 0 0 0
1025 1 10.910677500519789 16.273628497730652 5.462237403744204 0 0 0
118 1 12.247107280677286 14.881099653972115 4.135377921894337 0 0 0
260 1 13.613095539761346 13.531675975514665 5.462298394311796 0 0 0
410 1 16.36847379168163 13.516401394756592 13.618246951692836 0 0 0
126 1 17.650942709557164 14.961022205186167 4.031534022383211 0 0 0
268 1 19.017006452733494 13.585004351238968 5.396477992698649 0 0 0
1041 1 21.861492196423086 16.261333665794552 5.3403999290432775 0 0 0
134 1 23.230888727783356 15.001407002219743 4.043878384718376 0 0 0
276 1 24.532746946085748 13.568129743368356 5.421020751620565 0 0 0
414 1 17.75433987691281 14.8480977508914 14.958681426300108 0 0 0
142 1 28.526088319206377 14.931968238130086 4.0383848065968495 0 0 0
284 1 29.79675954803535 13.583446489102569 5.478790093907211 0 0 0
149 1 1.282095752472013 1.324305471717541 6.7003050261187465 0 0 0
151 1 3.990219123241289 1.4091614406158566 9.529159895940337 0 0 0
154 1 5.3071830594657845 2.686286225991912 8.126592804199408 0 0 0
155 1 8.122024538831276 0.002496739645254673 8.07408079035012 0 0 0
157 1 6.7250195766079806 1.3731605962958702 6.7394103819939355 0 0 0
159 1 9.476678566421135 1.2932252700520235 9.450733661141662 0 0 0
162 1 10.966092869866417 2.552959463009168 8.121753334345069 0 0 0
165 1 12.248239706834882 1.3341752593511151 6.677274097464776 0 0 0
167 1 14.934519746072043 1.3944662936364935 9.446108322005395 0 0 0
170 1 16.330904114862296 2.7107702797199176 8.096817379234786 0 0 0
173 1 17.673955641483488 1.279204510444762 6.7404605201604975 0 0 0
175 1 20.412033576113753 1.2855541844055391 9.471305332184846 0 0 0
178 1 21.69381128113386 2.7752022164458277 8.249563996577965 0 0 0
181 1 23.04548396017456 1.3623938365704236 6.834066684160853 0 0 0
161 1 10.797763523389253 -0.023917751516137287 5.449683311915414 0 0 0
183 1 25.85229230511675 1.3091517988399053 9.486057737688487 0 0 0
186 1 27.290103730918236 2.636509054978563 8.121255030214979 0 0 0
189 1 28.571414886804604 1.3103745417494366 6.715365087111895 0 0 0
146 1 0.11252010319557826 2.7060936844959738 8.130814123184447 0 0 0
191 1 31.35838718320772 1.3069179318960593 9.493366336749148 0 0 0
150 1 1.3519830713004815 4.09848595148808 9.541631565166933 0 0 0
195 1 2.599081842942427 5.403146580099838 8.115845738779777 0 0 0
152 1 3.982444024318919 4.05706497331741 6.688783183415013 0 0 0
158 1 6.821435718582428 4.080120691046707 9.448932961337219 0 0 0
203 1 8.23912652416349 5.447337527674738 8.23764580453052 0 0 0
160 1 9.533936017856814 4.010492938145479 6.8553481618169645 0 0 0
166 1 12.270295240417438 3.9492017009471376 9.513406513310036 0 0 0
211 1 13.492190999765464 5.328603963545627 8.037306765947964 0 0 0
168 1 14.897514467547746 4.007815373847156 6.760783870698302 0 0 0
174 1 17.764805924667108 4.048846397719903 9.471999867165797 0 0 0
176 1 20.31784568992391 4.0592285021588514 6.761326788804857 0 0 0
219 1 19.037987028145768 5.472408936381008 8.105445156301235 0 0 0
182 1 23.16586730864949 4.141303504978744 9.523266651485832 0 0 0
184 1 25.897015356692012 3.974472263482001 6.830073328384668 0 0 0
227 1 24.597745076392705 5.333912186117976 8.14380896707222 0 0 0
190 1 28.575568599410992 4.045517667799871 9.542914514862918 0 0 0
192 1 31.245060423706978 3.9637922835131025 6.757279312889161 0 0 0
235 1 29.88901200857107 5.3681605970211885 8.084885889890568 0 0 0
197 1 1.2292957434940135 6.728348003094745 6.816095577910954 0 0 0
198 1 1.2874633202853811 9.436539199797156 9.440532625364598 0 0 0
199 1 4.034479330554731 6.727408429696732 9.422790783895357 0 0 0
200 1 3.972064214249866 9.375343591853618 6.771456188184767 0 0 0
202 1 5.43008242642369 8.140268733868297 8.108869219450103 0 0 0
205 1 6.728077501641515 6.737653010700219 6.756070860311372 0 0 0
206 1 6.920081858511907 9.472446950192172 9.429643106646482 0 0 0
207 1 9.594195412111741 6.741282790664917 9.578699106310003 0 0 0
208 1 9.525412000951809 9.531574704729529 6.76770714099141 0 0 0
210 1 10.813076858411947 8.086143092061624 8.105466408282826 0 0 0
213 1 12.18899102386787 6.755225867801614 6.729030999220072 0 0 0
214 1 12.237273941469285 9.513110536825273 9.424070586680479 0 0 0
215 1 14.905049707257323 6.744917483960725 9.38416700770428 0 0 0
216 1 15.032092205459099 9.455519842104936 6.799065439547152 0 0 0
218 1 16.342129325801018 8.087230061372278 8.103196161465345 0 0 0
221 1 17.585246530274894 6.682043436210129 6.7153752770668325 0 0 0
222 1 17.57696272954415 9.471389521514258 9.366492116900082 0 0 0
223 1 20.396601620443583 6.855045150377119 9.502472713867142 0 0 0
224 1 20.328547378097888 9.386949175657378 6.839594579086991 0 0 0
226 1 21.813706355859974 8.139436855787146 8.160259915473214 0 0 0
229 1 23.127593698356133 6.715843572963102 6.849515825098753 0 0 0
230 1 23.069445720847273 9.511046528111798 9.544257910543609 0 0 0
231 1 25.909013432530305 6.738676160201281 9.425086590966655 0 0 0
232 1 25.85598718333456 9.42356367577924 6.844848636385553 0 0 0
234 1 27.173350980736963 8.08551524442311 8.092506124472798 0 0 0
237 1 28.633267535221425 6.775661940158548 6.816485349269299 0 0 0
238 1 28.403824856079858 9.498982746268751 9.438825351510859 0 0 0
194 1 32.49015301186862 8.096119871943065 8.146344254978727 -1 0 0
239 1 31.194519822300553 6.678071164334076 9.50982839401818 0 0 0
240 1 31.291187256648488 9.499489324956867 6.72776972903689 0 0 0
243 1 2.696618751975849 10.811588682689365 8.102823791121777 0 0 0
245 1 1.365747329052495 12.182648635534036 6.716425121692414 0 0 0
247 1 4.136496897472964 12.16911223740951 9.534896445851581 0 0 0
251 1 8.235019987188078 10.874028343197706 8.087580004131008 0 0 0
253 1 6.693747083772962 12.186938220071296 6.830969015011161 0 0 0
255 1 9.453167056421016 12.309147101140123 9.538815450684892 0 0 0
259 1 13.659650854142752 10.856410721418275 8.139546370297454 0 0 0
261 1 12.226530742707302 12.254317378568587 6.821511051848463 0 0 0
263 1 14.837760575487115 12.295381161495422 9.604949425109213 0 0 0
269 1 17.66055589001426 12.157868622719548 6.706904210362809 0 0 0
267 1 18.984093959368952 10.857012213920775 8.068073307958077 0 0 0
271 1 20.37776124785485 12.272810502489014 9.458114377571054 0 0 0
277 1 23.075507547694734 12.150088223851826 6.6608333153232415 0 0 0
275 1 24.41334890181481 10.838155357346231 8.249515811957686 0 0 0
279 1 25.792231092989194 12.300305093185885 9.563159756368712 0 0 0
285 1 28.535139138155223 12.1457742114652 6.765793215661809 0 0 0
283 1 29.9324858275796 10.764522186172528 8.12786329991645 0 0 0
287 1 31.3310842957514 12.159190738645796 9.551125091717887 0 0 0
406 1 12.30370229473146 14.922379601603835 14.977208031586777 0 0 0
242 1 -0.02681497889203531 13.543774794788092 8.124976099552649 0 0 0
246 1 1.381771891273884 14.962016831396305 9.601458532779695 0 0 0
248 1 4.04894697966951 14.984679355984765 6.785286792807048 0 0 0
250 1 5.431998982854365 13.610215602955726 8.102640004512361 0 0 0
1171 1 13.618297575766812 16.238535845558808 13.608250169280844 0 0 0
254 1 6.801478827063849 14.977068355647758 9.524504111295908 0 0 0
256 1 9.51982368012232 14.959677849650316 6.802654206998122 0 0 0
258 1 10.914358372717961 13.629014270264056 8.1848292005584 0 0 0
1027 1 13.593665022970544 16.27450411730135 8.135124423884964 0 0 0
262 1 12.244263782560482 14.996487875484057 9.527568538927525 0 0 0
264 1 15.04248187009081 14.943162409203397 6.813899000010197 0 0 0
266 1 16.329237563944226 13.614188203041191 8.189518990312473 0 0 0
270 1 17.59069561033222 14.998679274628167 9.498498162655327 0 0 0
402 1 10.987808840703222 13.587130256518938 13.54965738003992 0 0 0
272 1 20.447788449103815 15.007605724765934 6.723360173792646 0 0 0
274 1 21.70994512739017 13.524504295915762 8.042798164882868 0 0 0
278 1 23.050880410959238 14.923412839161914 9.573071644776867 0 0 0
398 1 6.775837960306628 15.048704754146062 14.821335576489119 0 0 0
280 1 25.77091464130122 14.976873502232182 6.820692315141377 0 0 0
282 1 27.078412045935625 13.466990825933555 8.011602602871758 0 0 0
286 1 28.5280208289227 14.850888325466677 9.432460638710406 0 0 0
1051 1 29.868869016200883 16.276848369196212 8.137627003131994 0 0 0
288 1 31.30458786861698 14.88424705756002 6.835456373692387 0 0 0
394 1 5.483012662533678 13.568597852461078 13.49331459006485 0 0 0
292 1 2.6229449240283684 2.761435787637708 10.919175372908711 0 0 0
293 1 1.345267043891993 1.2922292195905423 12.184095865989386 0 0 0
297 1 5.432901044251461 0.01891627498146204 10.745154597766154 0 0 0
300 1 8.18029511437493 2.6866094993449687 10.896251067464322 0 0 0
301 1 6.719327345245211 1.3255865193697867 12.2125447064071 0 0 0
308 1 13.615556889034451 2.6462720023072643 10.906330499553679 0 0 0
309 1 12.135441378957376 1.4277879066703356 12.177458865977338 0 0 0
317 1 17.5583652934094 1.3088081155050402 12.222640209418111 0 0 0
316 1 18.97964793698778 2.6344298968741833 10.881576308276497 0 0 0
532 1 2.6927045753867302 13.466616945065896 16.253062901353847 0 0 0
325 1 23.208999364504393 1.3756480833936648 12.203281849146281 0 0 0
324 1 24.61546580034231 2.8230901152974717 10.861152798253901 0 0 0
329 1 27.189007858980446 -0.02133565185208722 10.77229109773198 0 0 0
333 1 28.56787692114681 1.2172406639677757 12.14996090049576 0 0 0
332 1 29.926847240580013 2.6571941051133923 10.871443128178639 0 0 0
296 1 4.069459009985822 4.108214448444057 12.242291919082769 0 0 0
345 1 5.466448879267466 5.330309335841654 10.864156156901275 0 0 0
304 1 9.41754481925145 4.037769502911981 12.254814938758399 0 0 0
353 1 10.900810110477105 5.342057594267332 10.873781171179385 0 0 0
312 1 14.872103256808334 4.164822220607072 12.176811922122202 0 0 0
361 1 16.326447658311714 5.470039529329071 10.853468189020608 0 0 0
320 1 20.389999379786172 3.9959938754181765 12.16762133218172 0 0 0
369 1 21.686040756753247 5.434116019936841 10.951888262494874 0 0 0
328 1 25.884701345984535 4.067493099175596 12.31805370647436 0 0 0
377 1 27.195155319547375 5.406831029856578 10.881396048768138 0 0 0
337 1 32.59284415687043 5.355832340130063 10.916322871376238 -1 0 0
336 1 31.273970094894377 3.9907340661793826 12.24489212178426 0 0 0
340 1 2.756520538198641 8.12191578958488 10.797188211438462 0 0 0
341 1 1.3165048806694701 6.822351453510702 12.154955854678436 0 0 0
344 1 4.105041460352199 9.465578608404583 12.142105461476026 0 0 0
348 1 8.14547030016086 8.087575711239069 10.897825690608839 0 0 0
349 1 6.7732078744682624 6.734491418321797 12.216194400043403 0 0 0
352 1 9.351457751164496 9.477546064068394 12.193652257107736 0 0 0
356 1 13.584726328352072 8.207839161120559 10.884609698627697 0 0 0
357 1 12.282643898084194 6.757178274569034 12.181128320583783 0 0 0
360 1 14.987649790628508 9.482423567106846 12.242130036130185 0 0 0
365 1 17.65419181438705 6.736942169401086 12.26469953784599 0 0 0
364 1 18.95758474613016 8.209341391711039 10.79514624472752 0 0 0
368 1 20.376959438291472 9.468367445393769 12.181744837622396 0 0 0
373 1 23.045238046955433 6.816255614770498 12.213562270446603 0 0 0
372 1 24.469021958456374 8.120441198626573 10.868336751138486 0 0 0
376 1 25.782635504011584 9.491156787616271 12.234052495479613 0 0 0
381 1 28.45381515534325 6.789173832200888 12.182027148246394 0 0 0
380 1 29.765470172192654 8.057980943048106 10.779715057137668 0 0 0
384 1 31.12457750275497 9.420868647703989 12.192504914007792 0 0 0
385 1 0.08010737165943399 10.726399466429665 10.94550649862355 0 0 0
389 1 1.4354371066462999 12.153217929569557 12.30129792938287 0 0 0
393 1 5.557384005100335 10.772550075647304 10.758087734189608 0 0 0
397 1 6.691116798278838 12.246219634416057 12.047475741144114 0 0 0
401 1 10.75779345466857 10.79052463838889 10.841510836750738 0 0 0
405 1 12.269798036253883 12.21349872695579 12.181430884229263 0 0 0
409 1 16.236665736382847 10.784419550501982 10.814402803325576 0 0 0
413 1 17.593899111890288 12.168869134762524 12.142357129545493 0 0 0
417 1 21.747339352727323 10.873726524257494 10.864655145758885 0 0 0
421 1 23.148495965700487 12.229114142048013 12.250383434802593 0 0 0
425 1 27.18184834865502 10.863353508347936 10.93855653024421 0 0 0
429 1 28.555257501359037 12.298284098390496 12.26473137928842 0 0 0
1153 1 32.59693886055299 16.222250051453212 10.870165514543102 -1 0 0
388 1 2.685294564856477 13.50863393280413 10.870543684582753 0 0 0
392 1 4.04239589047025 14.837210854947566 12.172548174745943 0 0 0
396 1 8.110778743956976 13.629969519924057 10.930173121263579 0 0 0
386 1 32.61119588689624 13.488882438768782 13.489374179683333 -1 0 0
400 1 9.557520415680274 14.939567527789018 12.255926246502199 0 0 0
404 1 13.580939709663808 13.717218754767263 10.941538372135836 0 0 0
390 1 1.2975446972078124 14.896465265524151 14.942495600716843 0 0 0
408 1 15.080721951749586 14.97279166667611 12.268851462200926 0 0 0
412 1 18.971201202831796 13.594663596990317 10.81184462996313 0 0 0
416 1 20.339616751304384 14.85707917922523 12.361697778582572 0 0 0
420 1 24.422110164695983 13.590100590195645 10.940294239190688 0 0 0
424 1 25.798375977361378 15.003952883672243 12.233147891412623 0 0 0
1193 1 27.12805320446311 16.23071356774389 10.767785039928334 0 0 0
428 1 29.942637711591065 13.526792896092172 10.79257549897074 0 0 0
432 1 31.22148784552375 14.87193393367296 12.213615048971663 0 0 0
290 1 0.03340613378800541 2.687539054846115 13.535095657728428 0 0 0
427 1 29.75052358898076 10.872833087751593 13.639167770506948 0 0 0
27 1 19.013821633284298 -0.007313498299083676 2.7769766249455454 0 0 0
295 1 4.051100282788574 1.2717811511677886 14.952857031023967 0 0 0
298 1 5.382882287232789 2.749396600571747 13.608327202195532 0 0 0
19 1 13.61102122189675 0.02830296202070315 2.716348517405971 0 0 0
891 1 19.097122698776055 16.20275445990118 2.676245650077032 0 0 0
303 1 9.450924493676638 1.4256924643234443 15.068059284828875 0 0 0
306 1 10.813322449290848 2.7542036708717013 13.64866968382338 0 0 0
431 1 31.293025902488 12.179539163404504 14.936064832397541 0 0 0
419 1 24.45629200004902 10.878332332594743 13.556775365117042 0 0 0
311 1 14.863513755384021 1.3861126038169789 14.853790434745719 0 0 0
314 1 16.308684192897694 2.889617064799969 13.565458870942376 0 0 0
315 1 19.03892162609506 0.0553375299075603 13.688999809586315 0 0 0
319 1 20.432831929566227 1.410090496717694 14.905267738217802 0 0 0
322 1 21.831609176996565 2.6868900136526532 13.554243872797915 0 0 0
323 1 24.568867534026808 0.11238512224271693 13.532905331219741 0 0 0
327 1 25.940315412509005 1.3206738933334317 14.974071599129223 0 0 0
330 1 27.26407258982094 2.6587967987975683 13.540975834438731 0 0 0
331 1 29.927082165190185 0.03905269537207042 13.56328527144706 0 0 0
335 1 31.312936565169874 1.3936960912576224 14.936231773651052 0 0 0
476 1 29.93938066945455 2.6943078231885202 16.26047641278126 0 0 0
294 1 1.4219424633515634 4.052808598622436 14.90191706937676 0 0 0
339 1 2.7181925217106158 5.4436089666657805 13.614682393639542 0 0 0
481 1 0.05820774386720901 5.541351020510693 16.075524034760075 0 0 0
302 1 6.757484365447172 4.1387741702873395 14.95238353591377 0 0 0
347 1 8.236761406239605 5.484826382993014 13.618745159303128 0 0 0
423 1 25.90801243894709 12.219297002249867 14.913172003574255 0 0 0
310 1 12.209960057701494 4.094084222314997 14.983032689356822 0 0 0
355 1 13.575025566107362 5.490648443636858 13.677629606200336 0 0 0
318 1 17.703629974159778 4.124554095999167 14.900071158042902 0 0 0
363 1 19.023551974695376 5.391439948638421 13.53222880924976 0 0 0
326 1 23.132786581014678 4.009190007412829 15.017876330784901 0 0 0
371 1 24.430252518739156 5.448102369168183 13.54096482184005 0 0 0
334 1 28.449197940878616 4.0274690144886325 15.002584335313173 0 0 0
561 1 21.689257902774987 10.773583543946812 16.262406260341873 0 0 0
379 1 29.738915381320727 5.368595857787588 13.494930014392489 0 0 0
342 1 1.425122905765411 9.479866072224686 14.941496963787756 0 0 0
343 1 4.038098583635199 6.793907294942035 14.968196885908373 0 0 0
346 1 5.485455100151933 8.212989198443372 13.628472211750221 0 0 0
350 1 6.836824724515363 9.603577263973193 14.969727790193668 0 0 0
351 1 9.54426382364542 6.819795463298206 14.9809960511154 0 0 0
354 1 10.864216288356122 8.159636686567666 13.505060303632805 0 0 0
358 1 12.16342524663654 9.535497653703969 14.978209585676524 0 0 0
500 1 13.593692374945233 8.143692600411972 16.251255952511112 0 0 0
359 1 14.918800359382558 6.845592589603638 14.964517431423548 0 0 0
362 1 16.281754081948115 8.097465425243898 13.629144434048765 0 0 0
366 1 17.655900995765077 9.45828648611125 14.936481543017333 0 0 0
367 1 20.451412415094513 6.739525452842887 14.83180017068534 0 0 0
370 1 21.753282589490855 8.1913299165416 13.497621879890097 0 0 0
374 1 23.09169008742675 9.512349095706483 14.840147584474249 0 0 0
375 1 25.746936711113513 6.7826837737829395 14.930130848962104 0 0 0
378 1 27.137351687458043 8.09672397723749 13.554229449428894 0 0 0
382 1 28.431880560699234 9.456131608506308 14.917708300009748 0 0 0
338 1 32.56618133369337 8.171159899614663 13.572122107034328 -1 0 0
383 1 31.17570388204426 6.785566798038463 14.83684111043532 0 0 0
524 1 29.82410812742819 8.064082609267711 16.257760646444996 0 0 0
387 1 2.7708048796915548 10.78393567919386 13.568297613474783 0 0 0
391 1 4.120620709792314 12.263872446892133 14.942590950032146 0 0 0
395 1 8.058073567920019 10.946085962909121 13.441738037017277 0 0 0
399 1 9.470744284566369 12.24564967307065 14.902608467495899 0 0 0
545 1 10.826050507210066 10.881231544324116 16.283986630577246 0 0 0
403 1 13.584156182138278 10.804313480467936 13.585047889135128 0 0 0
407 1 14.950858788778028 12.145456236133157 15.01003039314647 0 0 0
411 1 18.96410239707613 10.83399823167075 13.513792597290138 0 0 0
415 1 20.323090847504904 12.137494853865885 15.021954143638043 0 0 0
433 1 -0.008085449563844785 -0.03137080711705368 16.223854249202258 0 0 0
140 1 29.809104544379544 13.623469929346129 0.021238012019807684 0 0 0
460 1 19.101718326444935 2.8046368277863154 16.210919947271183 0 0 0
489 1 5.401351142472857 5.413931298056589 16.286525527271863 0 0 0
505 1 16.250411667827365 5.436727199154803 16.252300478536146 0 0 0
492 1 8.204722407239716 8.211457773613994 16.256574659666104 0 0 0
508 1 19.04852120123859 8.063052831087843 16.247812723181475 0 0 0
529 1 -0.0031283778914144023 10.773102191728919 16.237278300124327 0 0 0
540 1 8.072328597262452 13.695575587691883 16.167769670989454 0 0 0
564 1 24.46421953308528 13.551993597733068 16.268072898066485 0 0 0
457 1 16.314415960302313 0.0264546108645618 16.258847524997027 0 0 0
100 1 2.673325361490414 13.485351650425489 0.08788251123142032 0 0 0
28 1 18.93929560573148 2.6449632053847294 0.003466595739098466 0 0 0
129 1 21.760669537274286 10.915255621628143 0.09281443298644376 0 0 0
49 1 0.03810859096484985 5.430532213369466 -0.02632512094248085 0 0 0
73 1 16.264959911503702 5.444895677104606 0.07212330252314558 0 0 0
9 1 5.500959844632455 0.006645197143768655 32.55649445852162 0 0 -1
1627 1 29.802891385370994 16.272510649705698 29.906584948966433 0 0 0
437 1 1.3803411024944077 1.2347461445056318 17.61294014988738 0 0 0
442 1 5.428193418826886 2.6534930531177845 19.07961111769076 0 0 0
443 1 8.17764594931809 0.006738229914663296 19.06498134012948 0 0 0
445 1 6.835616472272945 1.3089364320722738 17.72342900721477 0 0 0
450 1 10.898840942281069 2.690373963579185 19.09179521559962 0 0 0
453 1 12.240938894788501 1.288861122184008 17.718908555259993 0 0 0
458 1 16.298085744978145 2.6786886600094264 18.998710203354157 0 0 0
461 1 17.684177777183024 1.3536042014112595 17.53545851867587 0 0 0