LAMMPS data file via write_data, version 19 Nov 2024, timestep = 60100, units = metal

1728 atoms
1 atom types

-0.03201086178115631 32.61201086178009 xlo xhi
-0.03201086178115631 32.61201086178009 ylo yhi
-0.03201086178115631 32.61201086178009 zlo zhi

Atom Type Labels

1 Si

Masses

1 28.0855

Atoms # atomic

5 1 1.2753841103115453 1.469079517599624 1.2220731108324077 0 0 0
9 1 5.330533547461466 0.10566398986656474 0.055442064946021795 0 0 0
10 1 5.3722472625919275 2.716428804086018 2.60026222949207 0 0 0
1187 1 24.490097730614963 16.130760471446216 13.607200031272214 0 0 0
13 1 6.81598974804028 1.5003773350007137 1.2650352271557763 0 0 0
18 1 10.893372099620228 2.67399905315025 2.7054870265215527 0 0 0
187 1 29.958342645143222 0.002693940804171291 8.0104873243897 0 0 0
21 1 12.199404266380583 1.3265383696962436 1.2713903828317898 0 0 0
26 1 16.229679540807957 2.7768792241758895 2.69388844020259 0 0 0
29 1 17.601146033089858 1.396863616707633 1.2917358980084477 0 0 0
27 1 18.933100691863118 -0.02091957914460578 2.6632253585542602 0 0 0
28 1 19.096467522997106 2.6900599180326408 0.03065923027947754 0 0 0
33 1 21.865321108684032 -0.024967696231469678 -0.023804737907658594 0 0 0
34 1 21.793439781495536 2.728630074485779 2.734962582579985 0 0 0
37 1 23.171395642658506 1.4384538181036697 1.4062064620606491 0 0 0
36 1 24.434585272262083 2.819679889868663 0.031679019258861046 0 0 0
42 1 27.207154499440442 2.658665465521258 2.676666407535686 0 0 0
45 1 28.61135908950269 1.2727472061419216 1.3491302506951397 0 0 0
2 1 32.56596699201407 2.682390303485376 2.6709297529302813 -1 0 0
44 1 29.915833921233034 2.6767881953935144 0.005319402654243646 0 0 0
51 1 2.6956468158257922 5.478368086643394 2.670945063863447 0 0 0
8 1 4.070337130550936 4.041803833121234 1.319788265556584 0 0 0
57 1 5.508028045665546 5.446650613834513 0.032068022783089636 0 0 0
59 1 8.201292485071038 5.410378959567439 2.784130298931536 0 0 0
16 1 9.637635628315183 4.028283801429102 1.4305097003265415 0 0 0
145 1 0.063180977983194 -0.009544985802463657 5.3323629578851595 0 0 0
67 1 13.674425163361162 5.40479106008918 2.6529440143090386 0 0 0
24 1 14.947718337459133 4.063225181081153 1.2967012806877138 0 0 0
32 1 20.303644715064262 3.9721628538483538 1.4963826231101782 0 0 0
75 1 18.914993216829124 5.434434098333588 2.604767348264801 0 0 0
81 1 21.582140863970206 5.391289886449335 0.08043777841072357 0 0 0
40 1 25.882324196157995 4.156326245748492 1.3976011955385659 0 0 0
83 1 24.523558638376173 5.575969637468321 2.777732970351242 0 0 0
169 1 16.206538753437517 0.037135301300324386 5.350680050484682 0 0 0
48 1 31.206027084321523 4.094828113564148 1.3025390306843023 0 0 0
91 1 29.842600504258176 5.381411345470242 2.56816878105694 0 0 0
41 1 27.093777809251733 0.01180150941806346 0.013144380390512633 0 0 0
53 1 1.2710692144680122 6.7468636272353155 1.225733812809315 0 0 0
56 1 4.059300663863952 9.442148904218895 1.3237434025040609 0 0 0
58 1 5.474120166946584 8.12764260429532 2.7488053664673426 0 0 0
60 1 8.113273405301017 8.20430737148874 0.014070926140284892 0 0 0
61 1 6.817011226508026 6.82114958907282 1.4558691910878914 0 0 0
64 1 9.547883275604086 9.54619831531211 1.3517529957574272 0 0 0
66 1 10.911511589166269 8.1128477752814 2.5750379980148974 0 0 0
69 1 12.210255389262718 6.688011805076514 1.2372561233976926 0 0 0
72 1 14.966595659244865 9.471874302248002 1.401755869096995 0 0 0
74 1 16.284186929427452 8.010312223723568 2.6888185690569015 0 0 0
77 1 17.516315253743464 6.70941741817806 1.2610018849174351 0 0 0
80 1 20.4135931534995 9.524376574442334 1.40648701494565 0 0 0
82 1 21.712897946456174 8.170303923915613 2.6613975828105856 0 0 0
85 1 23.0133736296257 6.790210437811758 1.3272484028276608 0 0 0
88 1 25.797977214007652 9.385246117277338 1.39406345269701 0 0 0
90 1 27.143064132596255 8.1578481542727 2.6443113214879794 0 0 0
93 1 28.46570766731094 6.75471670914393 1.299293979433336 0 0 0
50 1 0.10271999643251917 8.164109907522215 2.6483219688661324 0 0 0
35 1 24.499072000513888 0.01087140783730689 2.8488963232844506 0 0 0
96 1 31.288089897485595 9.521378708421054 1.2870498351870772 0 0 0
99 1 2.712587457377282 10.807395171641607 2.644951524334516 0 0 0
101 1 1.3868842656357274 12.142966598872706 1.2501388324298455 0 0 0
105 1 5.392650516331577 10.859140639532495 0.08891337463848803 0 0 0
107 1 8.222208187261414 10.92638588855548 2.774035954610872 0 0 0
109 1 6.7880528547252394 12.219012140488438 1.3860707987840024 0 0 0
115 1 13.487790167976643 10.822347274877687 2.6541494590276624 0 0 0
117 1 12.171101803266934 12.249276059011914 1.2295111287804368 0 0 0
121 1 16.26300428163912 10.776349852520871 0.02225217246778708 0 0 0
125 1 17.66212408766701 12.225675498778019 1.3020923229286836 0 0 0
123 1 19.0303558594484 10.888772385396589 2.6950246396457613 0 0 0
133 1 23.152739555656364 12.235492686047795 1.3151615631768303 0 0 0
131 1 24.48692310997417 10.923602246913061 2.6952042010982864 0 0 0
11 1 8.186964086684274 0.0375256842421976 2.6032749461640283 0 0 0
141 1 28.508382987538557 12.166947600153842 1.3757437068854799 0 0 0
139 1 30.004816837735618 10.862803824951436 2.77498707188472 0 0 0
98 1 32.58558322502736 13.51819342367807 2.6436142006950196 -1 0 0
3 1 2.587920480395777 0.12515136421152562 2.585464932920066 0 0 0
865 1 32.54009589635687 16.288577332117143 0.003976522735214413 -1 0 0
386 1 0.025330444547961406 13.687644662273005 13.466885313148646 0 0 0
104 1 4.1361416560192055 14.974999291336603 1.2883361845978225 0 0 0
106 1 5.455474548223546 13.656615272649603 2.6492899486289505 0 0 0
875 1 8.050649855010985 16.213303730354678 2.706554844810009 0 0 0
112 1 9.455070678186692 14.963696463436252 1.3586375984189247 0 0 0
114 1 10.89773941645859 13.583582644380167 2.6596365962378363 0 0 0
889 1 16.283085959258873 16.240049705923266 0.04434113182904245 0 0 0
120 1 14.841785262589239 15.007000487652316 1.3427260636780327 0 0 0
122 1 16.150717682022243 13.517747339602929 2.582623016611773 0 0 0
124 1 19.105787396093202 13.573904842680466 -0.030598564587721158 0 0 0
128 1 20.357237106039033 14.902422715837202 1.3551377710347687 0 0 0
891 1 18.89024221938311 16.126137577262043 2.64597203019252 0 0 0
130 1 21.808589421675865 13.520401774827691 2.6947691141075683 0 0 0
136 1 25.98967438665276 14.887611644368047 1.364116751629519 0 0 0
426 1 27.149543417727422 13.546089604418905 13.68078209138991 0 0 0
138 1 27.21687481673494 13.538591718457244 2.7965412701506684 0 0 0
144 1 31.136920273349606 14.936745824134716 1.3755372986462298 0 0 0
430 1 28.612279043494137 14.954513737788004 14.932180196212883 0 0 0
148 1 2.6811783841445767 2.692000762690423 5.420039024891965 0 0 0
7 1 4.025512837911109 1.3214917662082346 4.046845801191816 0 0 0
564 1 24.473646052262126 13.535035718318463 16.275371429716255 0 0 0
156 1 8.264679732114432 2.615833373695172 5.316235620851656 0 0 0
15 1 9.588005816677876 1.20702000502628 3.9502891021559727 0 0 0
164 1 13.641703637305108 2.693870616188958 5.441592611665775 0 0 0
23 1 14.87711168420761 1.2910686289376376 4.003892625424444 0 0 0
31 1 20.339087624636015 1.4693340848250314 3.9658795937669327 0 0 0
172 1 18.992819275681757 2.784748302667446 5.437089038091654 0 0 0
177 1 21.640162500529186 0.06381380541272144 5.325116723561796 0 0 0
39 1 25.83364311495105 1.3994414593698443 4.150487236623738 0 0 0
180 1 24.405217662377463 2.7883672248592033 5.392828557273957 0 0 0
185 1 27.23891954795834 0.007080593531398582 5.386124621161319 0 0 0
47 1 31.297924390200198 1.3414086530773923 4.048120336934856 0 0 0
188 1 29.885073759092705 2.6675747209413614 5.332528343206727 0 0 0
6 1 1.4575845347652157 3.9909371188237075 3.988605062108802 0 0 0
201 1 5.504822688523936 5.345713188445144 5.327595586524872 0 0 0
14 1 6.828068532902437 3.9884274815741962 3.9492791155404454 0 0 0
209 1 11.00554203370787 5.402170026734534 5.384859514768196 0 0 0
22 1 12.32466232779554 3.97544838613073 3.990662399589979 0 0 0
30 1 17.57769155425774 4.12933850721939 4.11310406684924 0 0 0
217 1 16.36274162086202 5.520306924197578 5.528580521814206 0 0 0
38 1 23.12787940819729 4.150668970476958 4.035231030353747 0 0 0
225 1 21.657906482891825 5.51504686254005 5.328422470041268 0 0 0
46 1 28.573213334672765 4.091529622159971 4.001984643866765 0 0 0
233 1 27.310891215460284 5.6101038794625815 5.329929305778688 0 0 0
193 1 32.60954875773657 5.276152810049426 5.366593489252268 -1 0 0
54 1 1.4141982456243258 9.45678670115466 4.088680541667064 0 0 0
196 1 2.808964511506246 8.062691235057681 5.385066953771339 0 0 0
55 1 4.075620101805703 6.670000393705054 4.045352177466516 0 0 0
62 1 6.8212054668735504 9.530354186794167 4.078116762724211 0 0 0
204 1 8.174019178299123 8.054601037401286 5.404465322617925 0 0 0
63 1 9.572742015712855 6.7597268879401 4.027970580407713 0 0 0
70 1 12.187619653182937 9.479427211456377 4.0655740665244355 0 0 0
212 1 13.67172940042067 8.139935011170042 5.408288559189564 0 0 0
71 1 14.956963572472546 6.713200843795226 4.0448695264862256 0 0 0
78 1 17.59023802029055 9.528740533484399 3.9710815761119975 0 0 0
79 1 20.387503104762523 6.813310787128112 3.9391996131570566 0 0 0
220 1 19.010585596320293 8.21887505025142 5.3688699590271876 0 0 0
86 1 23.040912066201905 9.542233083815416 3.9539667604205624 0 0 0
87 1 25.796007244971772 6.958489000762294 4.099606399390487 0 0 0
228 1 24.362074965201778 8.22403980872618 5.321331186852057 0 0 0
94 1 28.514922395171578 9.454815235977199 4.020658832674553 0 0 0
95 1 31.261072736671068 6.774298197284889 4.019751749657856 0 0 0
236 1 29.8539764609118 8.075553990184147 5.424029577519322 0 0 0
103 1 3.9913245349544075 12.283111830958761 3.930905286978536 0 0 0
249 1 5.41821950142499 10.938002110159925 5.361150217452458 0 0 0
111 1 9.585061896355928 12.292889618620016 4.104021430515126 0 0 0
257 1 10.879863718847114 10.895068955872333 5.411963752415951 0 0 0
119 1 14.993060037419307 12.092376230161204 3.9594795162304735 0 0 0
265 1 16.267778203483108 10.799025453993945 5.477185432867805 0 0 0
127 1 20.37711509259418 12.275599051942057 4.002561786320154 0 0 0
273 1 21.636588788301978 10.902961155409857 5.42504727483138 0 0 0
135 1 25.787121280610275 12.2306189390328 4.109770058599757 0 0 0
281 1 27.225908026972373 10.920354491579184 5.3773276265324625 0 0 0
241 1 0.05523121958488275 10.734873363195478 5.412898897368661 0 0 0
143 1 31.328779303454798 12.093025650896823 4.122818518686717 0 0 0
102 1 1.3458215219657608 14.925009725417544 3.9266007047848026 0 0 0
244 1 2.6427122915829186 13.592887723793744 5.279504918127645 0 0 0
1009 1 32.6014245478216 16.285521488058226 5.364841810617962 -1 0 0
418 1 21.664092471544922 13.499552229633133 13.43469109848581 0 0 0
110 1 6.771856169779673 14.901313383481487 4.102240792656434 0 0 0
252 1 8.091342458939726 13.55857907194786 5.494457950510439 0 0 0
422 1 22.937349860822533 14.890860244176961 14.950613183053441 0 0 0
118 1 12.196989599467608 14.964357709882224 4.066272873251886 0 0 0
260 1 13.56137169860447 13.512271123365982 5.296219120054875 0 0 0
556 1 18.972106256803905 13.401071963671663 16.281034698884376 0 0 0
126 1 17.488746220451926 14.848731865687949 4.0614380165281485 0 0 0
268 1 18.91845823653723 13.504258364198673 5.331576271819326 0 0 0
1041 1 21.65288794956023 16.24674376123027 5.404788682550117 0 0 0
134 1 23.090313361008363 14.930290506789119 4.042206890035645 0 0 0
276 1 24.40653456078419 13.547694930410254 5.389090990901166 0 0 0
1049 1 27.13100886533075 16.27480738209404 5.479882006841821 0 0 0
142 1 28.549367582957295 14.933800162110062 4.053505949159656 0 0 0
284 1 29.94009016059666 13.512566734060156 5.309279597308791 0 0 0
147 1 2.7551436866529126 0.053441885743845514 8.154702069034132 0 0 0
149 1 1.3244591360777638 1.4117411074796966 6.8089828820883405 0 0 0
151 1 4.0729011382312805 1.4178138002568657 9.499674357461744 0 0 0
154 1 5.471064034787303 2.667044193749396 8.044790689179237 0 0 0
157 1 6.89703869965977 1.2384821545699294 6.718264684458047 0 0 0
159 1 9.48642229368268 1.3111579722070028 9.665962628300173 0 0 0
162 1 10.81487170061812 2.6469262866516283 8.17339868314236 0 0 0
165 1 12.244639839642982 1.1990836160508582 6.843582585234727 0 0 0
167 1 14.880368125496437 1.32626396829848 9.466184340032257 0 0 0
170 1 16.347705296696763 2.7044304741878338 8.169187114233992 0 0 0
173 1 17.661926970925304 1.3304725500807881 6.697607152294691 0 0 0
171 1 19.00390782336734 0.0537139121100313 8.136305225028538 0 0 0
175 1 20.39508106721688 1.4625239156084855 9.445882630673074 0 0 0
178 1 21.83420415888989 2.830817701297067 8.122459722553446 0 0 0
181 1 23.053979133759675 1.3696910036858536 6.69730062941373 0 0 0
179 1 24.444185473239422 0.04884999712482102 8.092005564071314 0 0 0
183 1 25.861693186967564 1.3514139700301684 9.502549627384417 0 0 0
186 1 27.11960271202431 2.8195706036136015 8.138355407039011 0 0 0
189 1 28.554436470209218 1.3561569855412006 6.7603175035788645 0 0 0
146 1 32.580366010189714 2.765877571531436 8.11387629664254 -1 0 0
191 1 31.277718613630864 1.3786652726590738 9.403266170909554 0 0 0
150 1 1.3554763540705428 4.000372531570517 9.494519410030577 0 0 0
195 1 2.595095603524162 5.330980524383563 8.036111168848862 0 0 0
152 1 4.158134428554645 4.026213818373635 6.768196729842746 0 0 0
158 1 6.791579261101506 3.9893499088472075 9.461548515907506 0 0 0
203 1 8.13186458170507 5.357033796095867 8.099586127400633 0 0 0
160 1 9.53266463493695 4.067299268982586 6.725956978926753 0 0 0
166 1 12.206793113455435 4.177965136422316 9.500812517734275 0 0 0
211 1 13.636617080720537 5.463994996497951 8.05882799938049 0 0 0
168 1 15.081184495088316 4.1175097700218135 6.775286974024679 0 0 0
174 1 17.692441787185118 4.106167453196992 9.4701640997074 0 0 0
176 1 20.439022754557033 4.224064047623789 6.6717870526474 0 0 0
219 1 19.02743956539085 5.421253484808482 8.083518512107855 0 0 0
182 1 23.33082802069692 4.131972806556623 9.377560925167003 0 0 0
184 1 25.89061881120415 4.197757019310201 6.679211186502838 0 0 0
227 1 24.51258781834702 5.593792145352166 8.001984384960627 0 0 0
190 1 28.517877685569474 4.193002465894376 9.462384232405396 0 0 0
192 1 31.115115060185353 4.034889497067608 6.805310106569963 0 0 0
235 1 29.85274883772183 5.4993886308975855 8.124590588102905 0 0 0
197 1 1.323852602152744 6.709109422067793 6.642311314776487 0 0 0
198 1 1.2937662529009475 9.458247249594377 9.571780368959951 0 0 0
199 1 3.9682979663428344 6.779163860579159 9.362990865311245 0 0 0
200 1 4.0983905833098015 9.503413278586962 6.74299270673149 0 0 0
202 1 5.324189061974943 8.098881842950625 8.07501964518705 0 0 0
205 1 6.768342506651636 6.690594840347997 6.751767857018176 0 0 0
206 1 6.677498727231328 9.403210677910605 9.545694258389391 0 0 0
207 1 9.47740757142169 6.824066620194277 9.501364505391738 0 0 0
208 1 9.49151307759458 9.49073565361389 6.726345785950522 0 0 0
210 1 10.805891586316537 8.140279659121902 8.105394537925758 0 0 0
213 1 12.250874562898977 6.796906070782907 6.786922000601188 0 0 0
214 1 12.203245455347492 9.473768120150103 9.499504567651465 0 0 0
215 1 14.896329796120781 6.805050808801304 9.659502919045165 0 0 0
216 1 14.973212421772631 9.491048514996612 6.887676362111968 0 0 0
218 1 16.338018848461346 8.13454582702411 8.303776521431677 0 0 0
221 1 17.742504605930353 6.896863611706203 6.939695437462541 0 0 0
222 1 17.632045404517005 9.538823949504614 9.622291060286232 0 0 0
223 1 20.475021787769542 6.742295583744809 9.359468505641887 0 0 0
224 1 20.18665036068939 9.594876966126137 6.733376051928401 0 0 0
226 1 21.656588342943483 8.188646359853681 8.06500869096248 0 0 0
229 1 23.017546529186976 6.919935559122942 6.674328541306092 0 0 0
230 1 23.12831713793302 9.424022869379957 9.44375522763447 0 0 0
231 1 25.832100350310927 6.817484718631332 9.539537052149283 0 0 0
232 1 25.852622487776546 9.528927492933338 6.743478278943598 0 0 0
234 1 27.174211837587567 8.137739564710456 8.129045726834947 0 0 0
237 1 28.5631521968017 6.790699176047174 6.797124920248949 0 0 0
238 1 28.602644881900535 9.439329337628415 9.516645287478639 0 0 0
194 1 0.07870710200649711 8.033537909436232 8.146714173859824 0 0 0
239 1 31.297883240779075 6.882190515406705 9.489624741295792 0 0 0
240 1 31.23604601775151 9.455041594531489 6.819037040590172 0 0 0
243 1 2.709657838495396 10.822595178134433 8.179272727203424 0 0 0
245 1 1.322922060906743 12.186015470371618 6.793248769331087 0 0 0
247 1 4.01606696347503 12.122391630847867 9.538964765760003 0 0 0
251 1 8.154215186592364 10.83341795244601 8.106272023108433 0 0 0
253 1 6.845024692903042 12.145084000739047 6.815247434038724 0 0 0
255 1 9.491759355507293 12.326084148661915 9.369800130163949 0 0 0
259 1 13.633862547254756 10.802653945664522 8.176688180726067 0 0 0
261 1 12.346904892345929 12.134291728987089 6.824763916571486 0 0 0
263 1 14.846617599680583 12.144217341210917 9.636669690431438 0 0 0
269 1 17.598399987902027 12.255062845083033 6.795651093365013 0 0 0
267 1 18.977609465840978 10.895138372147088 8.206204774303597 0 0 0
271 1 20.324057694216258 12.246704239448071 9.51748646781025 0 0 0
277 1 22.9536269909236 12.277487198244282 6.804819755299823 0 0 0
275 1 24.4428140333431 10.880237582454223 8.071226145976686 0 0 0
279 1 25.879532604227727 12.262595528818684 9.561021888117647 0 0 0
285 1 28.586499732465587 12.217083117100426 6.813906011189243 0 0 0
283 1 29.962923351845507 10.823927791139436 8.163738618859457 0 0 0
287 1 31.286727502426587 12.328979699289306 9.539508641826657 0 0 0
1011 1 2.616793355272126 16.106032060516114 8.044833234962171 0 0 0
242 1 32.611978910839 13.539881590212815 8.166203218903192 -1 0 0
246 1 1.350034290792676 14.720186424519733 9.496661539377047 0 0 0
248 1 4.044542418533987 14.881793009180406 6.704118833832732 0 0 0
250 1 5.44283750734501 13.541056324103698 8.149198822282612 0 0 0
254 1 6.7407545862253615 15.022811553682274 9.490787620912522 0 0 0
256 1 9.427062601084543 14.94008591385985 6.814577208301958 0 0 0
258 1 10.94874524236372 13.62861226445638 8.18165122887635 0 0 0
1179 1 18.946470302244716 16.276976614123118 13.588449102866205 0 0 0
262 1 12.209033892461163 15.0127715289929 9.508196136060736 0 0 0
264 1 14.912948880810315 14.92700154769313 6.756928826338808 0 0 0
266 1 16.190519532354305 13.638808750507781 8.222779998090598 0 0 0
270 1 17.65063745449125 14.963702576951379 9.490329763100506 0 0 0
410 1 16.203083926300963 13.556009739428756 13.568216858339886 0 0 0
272 1 20.239926765978726 14.88720458200432 6.738101226027114 0 0 0
274 1 21.583547751120815 13.662014769262209 8.1509066571291 0 0 0
278 1 23.139764188815903 14.829807145083906 9.542893405869757 0 0 0
1043 1 24.479173984645147 16.21882852459402 8.116136244798332 0 0 0
280 1 25.782161131180402 14.820910371173786 6.757395522919933 0 0 0
282 1 27.28453394742156 13.611450311175593 8.240161977158715 0 0 0
286 1 28.507304416245567 15.029083637432935 9.652347021862477 0 0 0
1051 1 30.012851962856345 16.26622173290886 8.116923495127677 0 0 0
288 1 31.320111514488712 14.826820637425861 6.696803561854311 0 0 0
289 1 -0.0030437188303250313 0.08682793133942351 10.80867690578104 0 0 0
292 1 2.684674963149566 2.6613731131093243 10.844319583151524 0 0 0
293 1 1.4075037382701732 1.3397037587021667 12.195103733893022 0 0 0
297 1 5.471173051589878 0.05401422454764 10.837773226481064 0 0 0
300 1 8.161447991278864 2.61937537977114 10.94784678406587 0 0 0
301 1 6.814868432501023 1.3218511203584684 12.374659887291974 0 0 0
308 1 13.619974556996167 2.702940341009918 10.892431495663669 0 0 0
309 1 12.220177081412578 1.2406333591393877 12.208274624879754 0 0 0
317 1 17.741946745219124 1.425213373950889 12.191223910244206 0 0 0
316 1 19.09141743820619 2.8784944502650576 10.824266504361848 0 0 0
321 1 21.67217680807919 0.04370313209939461 10.761731028978392 0 0 0
325 1 23.224822197526212 1.4110293301692869 12.047037782453511 0 0 0
324 1 24.633676094833085 2.7800255204788638 10.812595850420625 0 0 0
333 1 28.590579296156207 1.3393602432314673 12.04691533853257 0 0 0
332 1 29.960172734440512 2.7800766634726553 10.803162554395564 0 0 0
337 1 -0.01063143198257704 5.461372870672601 10.815411068585554 0 0 0
296 1 4.054107978170829 3.992978309281717 12.128333952542208 0 0 0
345 1 5.371787334876829 5.437241210647655 10.74350590686201 0 0 0
304 1 9.472718177001523 3.9694248563123393 12.28514491039487 0 0 0
353 1 10.79437523031384 5.42177616850765 10.871220548330625 0 0 0
312 1 15.008521249598235 4.066928108036697 12.250640536327285 0 0 0
361 1 16.407122137227653 5.516171428318074 10.903160023536882 0 0 0
320 1 20.54878013481161 4.096749756275238 12.28645950028426 0 0 0
369 1 21.807178510544777 5.385748506438031 10.777751820130181 0 0 0
328 1 25.887154680327242 4.15482706520752 12.212020907462941 0 0 0
377 1 27.28015363451919 5.586748820620322 10.788898578085591 0 0 0
336 1 31.366858043731835 4.1178297036395275 12.233575842922182 0 0 0
340 1 2.6151525889398997 8.098838138292878 10.942609419189715 0 0 0
341 1 1.2624401003924701 6.723769349477444 12.223211411420623 0 0 0
344 1 4.085356427534515 9.510539646088088 12.231895643842453 0 0 0
348 1 8.168917025735412 8.112803448587817 10.879707479448497 0 0 0
349 1 6.856918117054864 6.759983345642384 12.13253077441861 0 0 0
352 1 9.575969968100923 9.614157486652282 12.205176563664834 0 0 0
356 1 13.492179022559819 8.113008595983082 11.025525692234204 0 0 0
357 1 12.040192764371033 6.811999077474384 12.313315687345735 0 0 0
360 1 14.91777115727994 9.363732584920534 12.25771661838435 0 0 0
365 1 17.812506195355958 6.884985513733729 12.266248166597935 0 0 0
364 1 19.04803890638129 8.135875622927758 10.748966783460746 0 0 0
368 1 20.39388529054138 9.545555641333035 12.17138246834578 0 0 0
373 1 23.061260809335682 6.783401064151394 12.204300068742011 0 0 0
372 1 24.436018386616087 8.108759614301585 10.901154080429558 0 0 0
376 1 25.88173948389936 9.474389373735518 12.265891962062888 0 0 0
381 1 28.628668784209623 6.791692967773841 12.28236718318231 0 0 0
380 1 29.996392295969663 8.212762443567637 10.94407249561463 0 0 0
384 1 31.28187063473296 9.546679791520122 12.30002992584436 0 0 0
389 1 1.3253192627916626 12.23720575272395 12.191232466624315 0 0 0
393 1 5.570931203857824 10.845899452618742 10.915848497881658 0 0 0
397 1 6.939431073244564 12.2718672562536 12.223908346403812 0 0 0
401 1 10.84493038861254 10.962416360553208 10.847012857859353 0 0 0
405 1 12.14317246528279 12.2404875902533 12.381395693104183 0 0 0
409 1 16.19395723496371 10.745242719953604 11.007851074914816 0 0 0
413 1 17.567204847777543 12.189940419456402 12.255052892305994 0 0 0
417 1 21.74795790698592 10.860823611411096 10.767203516625404 0 0 0
421 1 23.05771109482779 12.258825178763207 12.113473415674717 0 0 0
425 1 27.20415935795849 10.765188695297992 10.88462232368488 0 0 0
429 1 28.607449937795092 12.236665643547692 12.272933731400443 0 0 0
385 1 -0.02101611435360695 10.938750754564841 10.870720301741862 0 0 0
388 1 2.714924670572044 13.540627572569264 10.861048170774842 0 0 0
414 1 17.613821076538965 14.82985568280561 14.88528993426844 0 0 0
392 1 4.061547818410216 14.998448976054656 12.214547204035464 0 0 0
396 1 8.142261177755962 13.67366188096555 10.727638712901673 0 0 0
400 1 9.472288220281055 15.01878179802603 12.177778668132298 0 0 0
404 1 13.449890493853744 13.578702229253485 10.899258911766042 0 0 0
1177 1 16.229513338771334 16.27723033586244 10.836702420165935 0 0 0
408 1 14.9101159465275 14.932018614369058 12.217664951573258 0 0 0
412 1 18.8912760540796 13.51013544791131 10.893811360946245 0 0 0
416 1 20.29358311163136 14.94249388978874 12.23182882743 0 0 0
1185 1 21.780115295392154 16.257029956175955 10.941830041915233 0 0 0
420 1 24.445983408339643 13.586284226172287 10.9174497696758 0 0 0
424 1 25.82003461245837 14.926154884963694 12.260779003241073 0 0 0
548 1 13.507258727909813 13.616802855333454 16.22558729512393 0 0 0
428 1 29.897727812435026 13.612638692440484 10.97995175021527 0 0 0
432 1 31.325172728752822 14.936101754543335 12.194618029312613 0 0 0
436 1 2.750798460008748 2.537630469303806 16.28102884938124 0 0 0
295 1 4.03471727206045 1.1577624255417263 14.904352020563916 0 0 0
298 1 5.359072428405049 2.601668075070383 13.660361338304863 0 0 0
444 1 8.192450799829148 2.6463085106874513 16.288545295680986 0 0 0
303 1 9.567587109801396 1.2814976404021816 14.972731970713498 0 0 0
306 1 10.892496872594787 2.5452736683246306 13.568759198006283 0 0 0
452 1 13.593520734121608 2.668448543052743 16.110732422362947 0 0 0
311 1 14.926752510234333 1.141672624382151 14.92096110294023 0 0 0
314 1 16.339410874539624 2.672595443872165 13.63429794364117 0 0 0
406 1 12.217474298587486 14.990929945811091 14.874197220441658 0 0 0
319 1 20.461877824086052 1.3427284701192257 14.925392165686763 0 0 0
398 1 6.77094899011696 15.050932827604415 14.76349040543527 0 0 0
322 1 21.89502717832105 2.5371663054655 13.59512222157283 0 0 0
1313 1 10.835481176688411 16.26004916171654 16.25552184283 0 0 0
327 1 25.78343384473142 1.3167990575847492 14.884177807797018 0 0 0
330 1 27.247505781330922 2.5899621956724355 13.545779993934351 0 0 0
290 1 -0.021617061443620855 2.668653048604218 13.568963162213558 0 0 0
402 1 10.784192176666625 13.658530270946038 13.623496301691164 0 0 0
335 1 31.17937378345285 1.1983028610933892 14.801466009954632 0 0 0
294 1 1.3684832910792832 3.933848142213994 14.924735417423275 0 0 0
339 1 2.7063147002105827 5.412042084541527 13.500582258040195 0 0 0
481 1 32.609045776320244 5.2802790635218315 16.256108361725854 -1 0 0
302 1 6.79651940916074 3.9618629054209946 14.902741170499837 0 0 0
347 1 8.103022105276699 5.319470078475517 13.545010741118164 0 0 0
310 1 12.23956060505388 4.048064167901507 14.774363773238019 0 0 0
355 1 13.69359820084833 5.4473953151109695 13.554269831301207 0 0 0
318 1 17.76803683411498 4.01276349507483 14.944597122086995 0 0 0
363 1 19.096675058987373 5.405040416148092 13.604623566192723 0 0 0
326 1 23.126675562465493 4.022450575047995 14.895605431394586 0 0 0
371 1 24.44840540219252 5.429549553978761 13.57274826645465 0 0 0
334 1 28.553248433140933 4.0409406473817775 14.830030735758925 0 0 0
521 1 27.22558286531982 5.387954103811775 16.178451147630046 0 0 0
379 1 29.94708434833667 5.385142031332007 13.568982932118013 0 0 0
342 1 1.2817161969242266 9.549418047890471 14.880274883310246 0 0 0
343 1 4.078850930055453 6.7082812518708215 14.998295071599049 0 0 0
346 1 5.491675398613158 8.106893944071967 13.663350900586286 0 0 0
350 1 6.861074580260645 9.4900016380892 14.982916688272622 0 0 0
351 1 9.437080708080675 6.61726687980789 14.92000268810528 0 0 0
354 1 10.828606127081462 8.152367381436108 13.68186062620176 0 0 0
358 1 12.218272904498274 9.512598233835455 15.015941315324328 0 0 0
359 1 14.985451941695882 6.733962598536528 14.9682714438674 0 0 0
362 1 16.287705978893843 8.03020858527219 13.598718159879976 0 0 0
366 1 17.773345599000027 9.495736670049753 14.876296835205654 0 0 0
367 1 20.46631038482999 6.7536364524208015 14.939702121986896 0 0 0
394 1 5.398423128736063 13.564807761092384 13.505032929551634 0 0 0
370 1 21.67290236388913 8.159912288666025 13.618608685517128 0 0 0
374 1 23.043282892066607 9.496027164145643 15.04896031823914 0 0 0
375 1 25.859501211639174 6.732526385636465 14.910284447932964 0 0 0
390 1 1.3042605834419974 15.0464861410174 14.899210471421462 0 0 0
378 1 27.32655182949181 8.123309219972157 13.656407156729747 0 0 0
382 1 28.632310641755836 9.5054878902948 14.99718879758164 0 0 0
338 1 32.58393781827007 8.202560700344582 13.591803792616815 -1 0 0
383 1 31.316883394351187 6.726558462161381 14.923989139481074 0 0 0
524 1 29.9067933292582 8.120116738318359 16.256235651464607 0 0 0
387 1 2.7555518563820938 10.871576645053104 13.566200280658538 0 0 0
391 1 4.077241647403479 12.367728877336823 14.936223382242641 0 0 0
537 1 5.325701584793288 10.894390042042662 16.252294317229616 0 0 0
395 1 8.199839430232457 10.802039006233107 13.59670886541907 0 0 0
399 1 9.414994440570458 12.27868061847936 14.951811642814024 0 0 0
403 1 13.647351497881568 10.800555065575457 13.609080817136546 0 0 0
407 1 14.943962358541212 12.2124553992459 14.908203556910019 0 0 0
553 1 16.285588040562526 10.774821480576547 16.27202264550095 0 0 0
415 1 20.409300863305194 12.16184161512013 14.901686427559468 0 0 0
411 1 19.055209675001127 10.866921664870667 13.54389683980278 0 0 0
423 1 25.749402813392514 12.07716357917093 14.974831896357813 0 0 0
419 1 24.313943627721965 10.852767917087444 13.531973251780055 0 0 0
431 1 31.372328785500002 12.34342851029012 14.977962053726243 0 0 0
427 1 30.009321946494044 10.90502949221611 13.6902650497177 0 0 0
132 1 24.548727458035135 13.66794950570122 0.01020341177167694 0 0 0
476 1 29.779411069813587 2.6523293907353915 16.248590084264087 0 0 0
489 1 5.402505199897257 5.2959107198581465 16.2734922910615 0 0 0
497 1 10.88768976853046 5.254186311889832 16.20604499629287 0 0 0
505 1 16.368030101883477 5.432406665359574 16.229166421747053 0 0 0
513 1 21.813206670712276 5.396690206536803 16.20241227232806 0 0 0
484 1 2.62052682679145 8.051409541314701 16.249682679625348 0 0 0
492 1 8.130976454618287 7.970534114338918 16.2354876739327 0 0 0
545 1 10.786185874815715 10.888729166712862 16.232920794591685 0 0 0
532 1 2.588579038636358 13.709101342240773 16.26838383605459 0 0 0
540 1 8.022347378247627 13.599795160565401 16.23316996339926 0 0 0
108 1 8.084117786205232 13.63365436484573 -0.012498130931234641 0 0 0
76 1 18.838438717993345 8.201454695266253 0.11812088008124277 0 0 0
113 1 10.781819451137755 10.933347034841574 -0.0035154415845326525 0 0 0
129 1 21.740675337826538 10.82796413317209 -0.008609498747865985 0 0 0
434 1 32.574399538921256 2.766275423309683 18.92246074927242 -1 0 0
140 1 29.80151039376685 13.553670285176013 32.60653603107963 0 0 -1
437 1 1.2977327500141431 1.2420423656532424 17.733489910841048 0 0 0
858 1 27.16607260930526 13.532947688070392 29.843976130988356 0 0 0
442 1 5.409881548953855 2.597012076160289 18.946816306014394 0 0 0
443 1 8.185196135580505 -0.019424235453262547 19.03217173748628 0 0 0
445 1 6.849952652521898 1.2609579024487785 17.650474610982222 0 0 0