LAMMPS data file via write_data, version 19 Nov 2024, timestep = 60100, units = metal

1728 atoms
1 atom types

-0.03104094059901641 32.61104094060056 xlo xhi
-0.03104094059901641 32.61104094060056 ylo yhi
-0.03104094059901641 32.61104094060056 zlo zhi

Atom Type Labels

1 Si

Masses

1 28.0855

Atoms # atomic

572 1 29.871554661474118 13.587801262128535 16.25046002024747 0 0 0
4 1 2.602770802414221 2.719458411592435 0.08491425669839493 0 0 0
5 1 1.186385381268947 1.3415482605495583 1.3884961173404105 0 0 0
449 1 10.797357751085523 0.005208074880975744 16.22649087031875 0 0 0
10 1 5.353625744874431 2.620592209973253 2.7273012093661846 0 0 0
13 1 6.758575455399346 1.2676867760519144 1.342531523826224 0 0 0
18 1 10.840734490509597 2.695295615063524 2.6701099754977253 0 0 0
1337 1 27.134925686194794 16.21334352185669 16.209812188721127 0 0 0
21 1 12.266990227002184 1.3625340387692173 1.3424832714213055 0 0 0
26 1 16.216143682330035 2.529731302491644 2.5604724026176395 0 0 0
29 1 17.619801976348512 1.190924274339323 1.3284340042323073 0 0 0
28 1 18.956831215914463 2.6549390368766397 0.0628066514023457 0 0 0
426 1 27.189825617470248 13.486871351464606 13.599319169014846 0 0 0
34 1 21.77281142720895 2.5924407960007416 2.600866157055484 0 0 0
37 1 23.078435233607884 1.1888021647734413 1.2887674762057186 0 0 0
42 1 27.172567119683162 2.61918081725682 2.6251749131512296 0 0 0
45 1 28.498237395101892 1.2728133159513482 1.2236858958297425 0 0 0
2 1 32.51570712144038 2.814672654578081 2.797524541972331 -1 0 0
430 1 28.522434363754158 14.92197049405951 14.916574976305501 0 0 0
51 1 2.55025972195866 5.383364926428855 2.7532902335750973 0 0 0
8 1 4.086297653668993 4.068058932114038 1.3802846352621692 0 0 0
1187 1 24.4136285671763 16.2188110993493 13.576772164270974 0 0 0
59 1 8.109306382292742 5.321219034260932 2.750324142294727 0 0 0
16 1 9.442987927353586 4.048991711908378 1.3017715575656086 0 0 0
65 1 10.793392692367574 5.461620241381766 0.007447841754902831 0 0 0
67 1 13.4692591523524 5.374727016403352 2.7931335339821493 0 0 0
24 1 14.858730949173255 3.9984038973348888 1.3937523944559527 0 0 0
73 1 16.286782772955778 5.394579546477378 0.03324027644263936 0 0 0
32 1 20.45365399695543 3.947977025346416 1.3200629826829948 0 0 0
75 1 19.112400967616825 5.330758288518548 2.687357199492084 0 0 0
40 1 25.65708744325047 3.9752730279651987 1.3204766518163884 0 0 0
83 1 24.418261129749183 5.40642768501229 2.793813944108412 0 0 0
89 1 27.15878399139952 5.3216059862609795 0.03751755261017064 0 0 0
329 1 27.14750505320121 0.045751504445185276 10.924544489043647 0 0 0
48 1 31.104925070366157 4.047461027705087 1.3001758867815372 0 0 0
91 1 29.7908300570017 5.335405320842797 2.688003037656015 0 0 0
53 1 1.2536032744127383 6.66090574783498 1.302291748442284 0 0 0
56 1 4.132010373861864 9.460190627331347 1.1540326144588968 0 0 0
58 1 5.365096583966842 8.147940226025508 2.6961187293938327 0 0 0
60 1 8.093988678017901 8.097658118378574 0.006430267144732367 0 0 0
61 1 6.712608320303576 6.7677564861892545 1.443615702456825 0 0 0
64 1 9.559897711138541 9.492688562643025 1.391783742917764 0 0 0
66 1 10.87149609561337 8.10794708192887 2.6800045493767577 0 0 0
1009 1 32.52346050254948 16.250252568471613 5.37629605931528 -1 0 0
69 1 12.195551690549905 6.788112844631814 1.340896707461759 0 0 0
72 1 14.951597642727403 9.524977745323392 1.2489815396333495 0 0 0
74 1 16.32481459542907 8.155610528273188 2.6675047936076552 0 0 0
77 1 17.725152447280607 6.650778518564291 1.3775025415056723 0 0 0
80 1 20.493582683223607 9.538189328372264 1.2830040252848647 0 0 0
82 1 21.75232805164227 8.134449825103792 2.6217498429326973 0 0 0
85 1 23.172094232211236 6.729615282748929 1.4154372037523668 0 0 0
88 1 25.92117346807881 9.51635495176079 1.433256734107063 0 0 0
90 1 27.265023248091673 8.031014449825179 2.7343180794550914 0 0 0
93 1 28.520110614488804 6.715554945120734 1.323287302294545 0 0 0
50 1 32.597650022998245 8.053964347522285 2.670327529942708 -1 0 0
92 1 29.865640949586084 8.134457379133197 0.047387596566191834 0 0 0
96 1 31.23818955914277 9.45835302525146 1.4030824440516698 0 0 0
97 1 -0.020168588574434935 10.77207881531218 0.04162873644589454 0 0 0
99 1 2.7264590843637393 10.756553577299117 2.680877790202809 0 0 0
101 1 1.3748325838837816 12.190806326150561 1.4055995245307311 0 0 0
107 1 8.076066764047328 10.84870671837916 2.81150538340318 0 0 0
109 1 6.7890244032652705 12.206431783091142 1.3893715192243126 0 0 0
1049 1 27.169557512860763 16.227853224142745 5.485558315749201 0 0 0
115 1 13.438318056468232 10.813482625538745 2.552235579335783 0 0 0
117 1 12.197237113509003 12.210244172056381 1.183952841969185 0 0 0
1033 1 16.33538538319519 16.196655829368588 5.472518998178642 0 0 0
125 1 17.672603149119045 12.253767408482563 1.2938469585071513 0 0 0
123 1 19.044857059906764 10.90888833700634 2.610212600008608 0 0 0
3 1 2.6315272740963187 0.003554905422355148 2.7234540996089787 0 0 0
133 1 23.129733819818266 12.197292943243056 1.3842191547599532 0 0 0
131 1 24.46872502220734 10.81980157723805 2.737133050647455 0 0 0
137 1 27.12321390152915 10.878150870664003 0.026480717070852092 0 0 0
141 1 28.42675907635408 12.255432788897071 1.3024871675206113 0 0 0
139 1 29.867394099614902 10.88493627023482 2.702739062512325 0 0 0
104 1 4.097648783149671 14.85252231030545 1.271778855988426 0 0 0
106 1 5.380502116265683 13.527214025270984 2.7233767353901324 0 0 0
899 1 24.3992158830156 16.23268354258615 2.730319411316465 0 0 0
875 1 8.149680123398898 16.273116580318142 2.632365507192845 0 0 0
112 1 9.527546116484888 14.901013347727813 1.340688991439279 0 0 0
114 1 10.88229268846554 13.543715750633803 2.727972370740093 0 0 0
881 1 10.822431606512739 16.239967540986438 -0.015285162530209744 0 0 0
891 1 19.028563375195592 16.24113414894813 2.6952831136897895 0 0 0
564 1 24.496848008734954 13.54636013011634 16.271654555915493 0 0 0
120 1 14.884779351101693 14.999485000943476 1.2577541685888591 0 0 0
122 1 16.304985795378265 13.598303400280804 2.5628082610062135 0 0 0
128 1 20.423213186759174 14.929314609607124 1.2809005610314599 0 0 0
130 1 21.702804596810754 13.495511042596194 2.7140557272502215 0 0 0
1163 1 8.101089937520236 16.214501437147455 13.628253210237744 0 0 0
394 1 5.3750540192863125 13.582923786600736 13.586465984240496 0 0 0
136 1 25.777975164923664 14.8491941391531 1.3040203709596736 0 0 0
138 1 27.15387760201292 13.538131884356792 2.7333583493639106 0 0 0
98 1 32.59636771500545 13.584754544410659 2.6140739700951254 -1 0 0
398 1 6.682778230324904 14.962429072315215 14.948884293036256 0 0 0
144 1 31.277653059220665 14.983413336125823 1.2443292748496726 0 0 0
907 1 29.885638680421742 16.27207181771976 2.5994171006003985 0 0 0
148 1 2.651150154162254 2.7337048269666826 5.419500839560499 0 0 0
7 1 3.9854016802152916 1.2904842003101031 4.140342885383459 0 0 0
156 1 8.224031326983823 2.692791139182962 5.460718108119625 0 0 0
15 1 9.537627941369456 1.2677643189081655 4.114910374097498 0 0 0
418 1 21.725250659223676 13.551594134839368 13.516815340839695 0 0 0
164 1 13.652551560111931 2.716333911178408 5.443551872516068 0 0 0
23 1 14.871173817808556 1.2894989502084044 4.080010104005736 0 0 0
31 1 20.407091871010117 1.2262948942928111 4.043543559626181 0 0 0
172 1 18.99720616547962 2.655952549863761 5.375430913934913 0 0 0
39 1 25.84968738379172 1.273367211645285 4.049544267179039 0 0 0
180 1 24.399562925871994 2.5768763497049876 5.46386040829715 0 0 0
422 1 23.097177379939176 14.862834233287677 14.91735861582963 0 0 0
47 1 31.25093495492681 1.231936675039063 4.04883836094414 0 0 0
188 1 29.80462043527192 2.582082580756926 5.3876584475263 0 0 0
6 1 1.2797003444334758 4.083262503797274 4.147979521142894 0 0 0
193 1 32.494738790403275 5.411907221871231 5.510863745082595 -1 0 0
201 1 5.446004519273423 5.406679756353458 5.405964703340792 0 0 0
14 1 6.788851507191059 3.9793213881105527 4.065861092899696 0 0 0
209 1 10.785940438527472 5.3802217258903235 5.471034886695347 0 0 0
22 1 12.159069995812773 3.9745996106852193 4.165228183729873 0 0 0
30 1 17.603468295297056 3.912225774648142 3.949379543945017 0 0 0
217 1 16.340656013844477 5.417056230569153 5.454492486094817 0 0 0
38 1 23.047614136621757 3.9285008906705388 4.044280862981762 0 0 0
225 1 21.709825040598695 5.340218169028701 5.340695000997028 0 0 0
46 1 28.452389393192952 3.955638210328686 4.014366702096796 0 0 0
233 1 27.13607478770507 5.405321694002558 5.412470246241692 0 0 0
54 1 1.3280571819475182 9.38649109871963 4.084084949922172 0 0 0
196 1 2.6648153723693415 8.12418703174756 5.4445927099913405 0 0 0
55 1 4.036088046432844 6.706699627042285 4.119176526617306 0 0 0
62 1 6.74416514759554 9.460373855687093 4.098931215272602 0 0 0
204 1 8.154565082007522 8.12801044215746 5.347959252787523 0 0 0
63 1 9.481932332613633 6.782604489789473 4.043631990079302 0 0 0
70 1 12.229181220084916 9.392266545981123 3.9381567986494583 0 0 0
212 1 13.554510377165682 8.126054446602884 5.461181677210212 0 0 0
71 1 14.94389433409521 6.759646029372426 4.0311174284664935 0 0 0
78 1 17.66692848622731 9.545142613861865 4.031099502386854 0 0 0
79 1 20.426454072162613 6.778070339842457 4.101155297072056 0 0 0
220 1 19.102370066919306 8.182335790902489 5.408766209021536 0 0 0
86 1 23.107769090901233 9.473788684229389 4.0409259856746775 0 0 0
87 1 25.790500006818515 6.753423384107386 4.099240544876276 0 0 0
228 1 24.443480973009052 8.048039273380631 5.4335531267344015 0 0 0
94 1 28.476468971750986 9.510853255282157 4.098699857139163 0 0 0
95 1 31.238457692415725 6.742053568915405 4.052819667084771 0 0 0
236 1 29.88197162369759 8.161065624319498 5.3653462694246 0 0 0
103 1 3.997966958001137 12.104464687267415 4.042382584860294 0 0 0
249 1 5.3922424758171115 10.717237578781143 5.4934023606648505 0 0 0
111 1 9.453969394552153 12.239824765817835 4.0670737937462365 0 0 0
257 1 10.90714152275534 10.790832333631988 5.3534826356758005 0 0 0
119 1 14.961922762113344 12.21567809303532 3.8980387658805147 0 0 0
265 1 16.295971987953124 10.918073509235088 5.316203235883953 0 0 0
127 1 20.388880741726236 12.16524664805314 4.055412399534581 0 0 0
273 1 21.73578946882887 10.798155568981663 5.367360752190231 0 0 0
135 1 25.82503149372863 12.247306156354249 4.096614323219134 0 0 0
281 1 27.117633287803354 10.881533356579553 5.4087486053707785 0 0 0
241 1 -0.030524780983128608 10.915347102232763 5.312044664343742 0 0 0
143 1 31.265490988537508 12.21068398989768 3.970340681852841 0 0 0
102 1 1.267459690950059 15.02482231846711 3.9654110216656924 0 0 0
244 1 2.6637931542010773 13.569461545413388 5.340535294424088 0 0 0
386 1 32.564129006732976 13.69226947248621 13.600409363959624 -1 0 0
110 1 6.761007842349928 14.947017876494073 4.0310605406260684 0 0 0
252 1 8.136689917584071 13.582520794935645 5.409628258379036 0 0 0
1025 1 11.00215133916102 16.2731795806598 5.386590555017338 0 0 0
118 1 12.295548546597855 14.937073276241202 3.9506940273320166 0 0 0
260 1 13.601748786737344 13.562561993271537 5.298058778067648 0 0 0
126 1 17.602221013340042 14.866439841183144 3.997405666386114 0 0 0
268 1 19.00833070792952 13.558808185331333 5.43230677228276 0 0 0
134 1 23.02954221644873 14.875840253934095 4.063594439357475 0 0 0
276 1 24.43396971464277 13.634552722637808 5.43968976429268 0 0 0
142 1 28.50610172570423 14.99110457296946 4.058303744170053 0 0 0
284 1 29.910646027347383 13.6057540118327 5.357900905497745 0 0 0
146 1 0.04321100118226414 2.7194573318120625 8.136589300505769 0 0 0
147 1 2.690376865554852 0.08494941955416892 8.13564644587747 0 0 0
149 1 1.3438470931162316 1.3328218028861196 6.758115688384076 0 0 0
151 1 4.067461111721939 1.415027328992121 9.451670934353194 0 0 0
154 1 5.4955729552644526 2.777357056216705 8.051653412769268 0 0 0
1179 1 19.09327513480692 16.27931257209368 13.538423622893426 0 0 0
157 1 6.803886821969139 1.3521550789891776 6.719199153112027 0 0 0
159 1 9.441112624782091 1.3057438022989813 9.502213888518527 0 0 0
162 1 10.840069340822826 2.7292618444857704 8.191983300368413 0 0 0
163 1 13.53379803708473 -0.016401737183426468 8.148054591268124 0 0 0
165 1 12.263945726458447 1.3850173544381983 6.813633410700696 0 0 0
167 1 14.91581088157503 1.332370000717137 9.567451129060382 0 0 0
170 1 16.251219897054646 2.727259759824714 8.248520224053799 0 0 0
173 1 17.517331279428248 1.3295873554486228 6.762311107068881 0 0 0
171 1 18.934596171368614 0.0019061087163949218 8.07996153347386 0 0 0
175 1 20.253095447290395 1.332636711961855 9.503770677538892 0 0 0
178 1 21.62243750054252 2.5881147758452303 8.092741218176371 0 0 0
181 1 23.061126515727445 1.222200244014321 6.824391260987207 0 0 0
183 1 25.74060244159179 1.3136425227121917 9.46103964613118 0 0 0
186 1 27.021399176812658 2.6259036748748734 8.133122768821389 0 0 0
189 1 28.457173179403412 1.2292911043463808 6.856844938370784 0 0 0
187 1 29.878447552771924 0.03196420935555245 8.28420558978462 0 0 0
191 1 31.293897051839103 1.4194780218951448 9.563408083770055 0 0 0
150 1 1.3310877023074201 4.148619617106093 9.490478717772335 0 0 0
195 1 2.7036960383140967 5.465665248537663 8.182207898345883 0 0 0
152 1 3.986508956463078 4.09232452190954 6.72798714947982 0 0 0
158 1 6.829880686863151 4.09250394646438 9.481707599455476 0 0 0
203 1 8.211270583195795 5.510621467138697 8.136743053054282 0 0 0
160 1 9.502354771144793 4.02291652625459 6.875183732720746 0 0 0
166 1 12.186826775015913 4.033464391851449 9.479145005763565 0 0 0
211 1 13.428680983918127 5.4394696765060875 8.094528105895604 0 0 0
168 1 14.966910792981418 4.116158829660991 6.832919969687032 0 0 0
174 1 17.68860143065852 4.11048352276945 9.613380145145022 0 0 0
176 1 20.362690147704036 3.995609293940014 6.72142772631006 0 0 0
219 1 18.967718985121735 5.401910624538019 8.184948545334088 0 0 0
182 1 23.00524236294923 3.926917910000157 9.482860554430184 0 0 0
184 1 25.745911408069567 3.975196915412186 6.693763858799491 0 0 0
227 1 24.387242260839578 5.300723117414646 8.111464310245692 0 0 0
190 1 28.498664024147008 4.033083374266474 9.458259029048731 0 0 0
192 1 31.13905460245338 3.9890632768454086 6.7567647785499245 0 0 0
235 1 29.832312555336358 5.48435782633217 8.093651444844735 0 0 0
197 1 1.2768477369793152 6.874989650146988 6.8281154030452145 0 0 0
198 1 1.2957963966171926 9.667833964616339 9.532102342222549 0 0 0
199 1 4.0920016271084485 6.809839094867974 9.59223414365003 0 0 0
200 1 3.9587585901883666 9.395474851028927 6.842318675583746 0 0 0
202 1 5.373817895307835 8.119512366662667 8.122558341261 0 0 0
205 1 6.8021616178308015 6.755650428426367 6.761498049614897 0 0 0
206 1 6.746055375109995 9.452574089124514 9.51070056782862 0 0 0
207 1 9.515444302991865 6.912711449973016 9.504059114374163 0 0 0
208 1 9.50841086265383 9.447150794236327 6.641571687100594 0 0 0
210 1 10.812858844758614 8.307057028250549 8.118969612060988 0 0 0
213 1 12.077609016850719 6.8064231344027135 6.719705095235465 0 0 0
214 1 12.259005712962564 9.551132049025643 9.446391776720949 0 0 0
215 1 14.899186109501088 6.880149923411975 9.430539013666863 0 0 0
216 1 15.035593158222198 9.502078100630774 6.745497385413408 0 0 0
218 1 16.408402340770557 8.136355033005929 8.106172124966395 0 0 0
221 1 17.718115176735584 6.784760772962758 6.727480027492741 0 0 0
222 1 17.742868611484116 9.486922108272928 9.486488763651426 0 0 0
223 1 20.398893433907073 6.739842239400866 9.420736603360776 0 0 0
224 1 20.435163309545153 9.4665896314101 6.774426172845774 0 0 0
226 1 21.724357426728435 8.14055718522651 8.106429803294265 0 0 0
229 1 23.0845700638017 6.685776902397424 6.714414570414235 0 0 0
230 1 23.06983386101224 9.445467897038155 9.531968445921748 0 0 0
231 1 25.689116021016602 6.727613579200937 9.43440032765956 0 0 0
232 1 25.803038709011815 9.488575937909129 6.7698758438519935 0 0 0
234 1 27.130146854180538 8.130302235443413 8.137208615997624 0 0 0
237 1 28.463443661314358 6.844949458067469 6.727247257887073 0 0 0
238 1 28.49989275128492 9.448238418238539 9.513354098009518 0 0 0
194 1 32.61036543504973 8.234515246185742 8.250643080498437 -1 0 0
239 1 31.228446361119442 6.735318051117108 9.417192467625204 0 0 0
240 1 31.260998365884145 9.511791158737934 6.706161233975448 0 0 0
243 1 2.665203061382784 10.885596962121888 8.081984609209513 0 0 0
245 1 1.3833470737153681 12.22618139821271 6.713312346409001 0 0 0
247 1 4.0193492940594275 12.14929521052556 9.54850601665351 0 0 0
251 1 8.148326086682342 10.844338832374662 8.072878931347208 0 0 0
253 1 6.742623480351098 12.14891335626193 6.789500945386076 0 0 0
255 1 9.437656936392491 12.233728839284478 9.446066872820165 0 0 0
259 1 13.6783143953858 10.789139328638587 8.076808115965035 0 0 0
261 1 12.358911050986439 12.149005961039082 6.693775279672111 0 0 0
263 1 14.92607935130338 12.175117585223445 9.507263409352374 0 0 0
269 1 17.669757158991125 12.208329208662047 6.7674823125428 0 0 0
267 1 19.12293628914988 10.912186904208914 8.135144069093524 0 0 0
271 1 20.455983378215056 12.295318831049835 9.440262290286416 0 0 0
277 1 23.109553451549075 12.223316008669663 6.688588219361376 0 0 0
275 1 24.33134131630774 10.78631622042161 8.170154859841492 0 0 0
279 1 25.74061568762339 12.156243506099495 9.54290750789581 0 0 0
285 1 28.539515357072368 12.215807836359579 6.736768621308403 0 0 0
283 1 29.867361310877556 10.839374253917153 8.117975421533751 0 0 0
287 1 31.263943846609124 12.166150442692574 9.492758462449967 0 0 0
246 1 1.278068844714698 14.967971625134558 9.509619566971663 0 0 0
248 1 3.9795005903696263 15.010352071497092 6.739910214561279 0 0 0
250 1 5.37265375388235 13.507873613096635 8.134858193702232 0 0 0
254 1 6.717936192006111 14.90507875789589 9.39063290788113 0 0 0
1019 1 8.191512342221598 16.21379392165281 8.067001303196397 0 0 0
256 1 9.602359870781596 14.919593402783459 6.68368243208076 0 0 0
258 1 10.874956337860919 13.448731348203806 8.018028156958094 0 0 0
1027 1 13.605253427232107 16.239680072326916 8.155103718372716 0 0 0
262 1 12.16929274253332 14.909523999246066 9.441591338135986 0 0 0
264 1 14.927766269909231 14.906197064510684 6.801132818707534 0 0 0
266 1 16.285081313239328 13.49076301761639 8.171524504819272 0 0 0
270 1 17.689923926433917 14.98841617265885 9.436311488710098 0 0 0
272 1 20.348330132067144 14.980698144865315 6.772301979469877 0 0 0
274 1 21.804713810598287 13.586791231230405 8.041152754058908 0 0 0
278 1 23.162124278189133 14.771340560268028 9.482476766604313 0 0 0
1043 1 24.503991030091427 16.237595074373743 8.184786634385144 0 0 0
280 1 25.798219116993806 14.921194492499614 6.783922150821003 0 0 0
282 1 27.157840873139136 13.543884684573765 8.124391368320167 0 0 0
286 1 28.517286288881 14.952290877204142 9.468198416414355 0 0 0
242 1 0.06184187288111076 13.552668041501407 8.070604789268167 0 0 0
288 1 31.193949458179087 14.930174272848276 6.779739182366184 0 0 0
289 1 32.59240802366112 0.03301066913159508 10.912766262714303 -1 0 0
292 1 2.6266504001503024 2.7340416390274074 10.885947434761794 0 0 0
293 1 1.3786003801624431 1.309247687603346 12.206087307134942 0 0 0
300 1 8.083174890990145 2.7454873050774666 10.7971866761057 0 0 0
301 1 6.748092867205446 1.347754675481737 12.0811175001772 0 0 0
410 1 16.17971725569861 13.565662569029387 13.551184519942131 0 0 0
308 1 13.503413133017956 2.723064640741019 10.797887578062419 0 0 0
309 1 12.195111861617375 1.3808981302848593 12.152221885675129 0 0 0
313 1 16.32066507438485 0.025535740387632136 10.935987637473655 0 0 0
317 1 17.622825982952925 1.3508154470043237 12.230836198579308 0 0 0
316 1 18.983958844598472 2.7432335006170803 10.916016727401832 0 0 0
325 1 23.045191597934245 1.325379044037973 12.202817751363092 0 0 0
324 1 24.442887911325627 2.6389965388356718 10.817855554396557 0 0 0
333 1 28.42597633631626 1.2608568272857006 12.341614310758922 0 0 0
332 1 29.777550318149572 2.6900027853780686 10.957679874262217 0 0 0
296 1 4.063305141262376 4.050698097058247 12.244733603782988 0 0 0
345 1 5.400718157214452 5.410074860160347 10.8769740146033 0 0 0
304 1 9.496417213597791 4.110299015781407 12.127239727152821 0 0 0
353 1 10.885656456899092 5.452459604510122 10.800906711305517 0 0 0
312 1 14.873988216234565 4.083946940333964 12.170120977559755 0 0 0
361 1 16.22958320895609 5.4703736089741435 10.896260389975486 0 0 0
320 1 20.273762603879934 4.018028082484758 12.217255933258562 0 0 0
369 1 21.696300771427133 5.361328274701402 10.77314691266926 0 0 0
328 1 25.74625166749556 4.020255672329105 12.179625351150174 0 0 0
377 1 27.060994553116167 5.404514167415144 10.765760791696625 0 0 0
337 1 32.53673094182253 5.4598393050832374 10.836426430099692 -1 0 0
336 1 31.148090317970325 4.0532826153963 12.258496446539164 0 0 0
340 1 2.6975693798184377 8.212327001287235 10.82545846531842 0 0 0
341 1 1.2812232863414414 6.8685913645484495 12.183607301746674 0 0 0
344 1 3.9910458747658417 9.535303068726506 12.281253284631818 0 0 0
348 1 8.088163155221693 8.155829160590164 10.840180145189592 0 0 0
349 1 6.720107106116756 6.806876012772847 12.232418768413822 0 0 0
352 1 9.455609197713379 9.416151658067971 12.137667710762583 0 0 0
356 1 13.544303351550003 8.18721071788222 10.807853207758319 0 0 0
357 1 12.197082756703036 6.7645148024055635 12.19102008464124 0 0 0
360 1 14.937778568878446 9.451747036354787 12.214706669368418 0 0 0
365 1 17.6911883772835 6.697868159124784 12.253176357906005 0 0 0
364 1 19.061953287831795 8.094832095091123 10.854305748130425 0 0 0
368 1 20.350624327453975 9.533331868918395 12.215537720364289 0 0 0
373 1 23.04993620059689 6.74196913397823 12.155369660660323 0 0 0
372 1 24.374666607897563 8.066171051484808 10.825279215274689 0 0 0
376 1 25.802482257099705 9.396300634815594 12.244545081773206 0 0 0
381 1 28.512810292145158 6.656170132423588 12.219346076772167 0 0 0
380 1 29.857385107805456 8.019736271582966 10.831693739430321 0 0 0
384 1 31.186878880208095 9.492295275143507 12.207318100749793 0 0 0
389 1 1.2972418349594832 12.295916359339916 12.270366283887176 0 0 0
393 1 5.358742877350734 10.713835191480623 10.855894831435391 0 0 0
397 1 6.7476101826703125 12.211321693415545 12.204926944071497 0 0 0
401 1 10.773132692338901 10.8704733524009 10.780827255590435 0 0 0
405 1 12.179973206195992 12.22524851123562 12.124410980343644 0 0 0
409 1 16.281818351632168 10.829514204049813 10.80736728014751 0 0 0
413 1 17.68507675692916 12.385286741093596 12.113977206558983 0 0 0
417 1 21.75629619625541 10.841679173939236 10.830920129473439 0 0 0
421 1 23.043509078504343 12.114917989942626 12.24473448812135 0 0 0
425 1 27.16960668410371 10.847880745953809 10.87777544551049 0 0 0
429 1 28.628928953644014 12.20310873087987 12.18937285896766 0 0 0
385 1 32.542388732994624 10.861291064981959 10.947980484334112 -1 0 0
388 1 2.703339986276634 13.594654063114234 10.89189073560026 0 0 0
414 1 17.68038853306404 14.908274092347689 14.890117048278853 0 0 0
392 1 4.055097406208042 14.993678700635606 12.131963252397236 0 0 0
396 1 8.080737489410978 13.56705165711211 10.778649655375993 0 0 0
1169 1 10.772337766046292 16.23595518994569 10.781022031747591 0 0 0
400 1 9.474686692745607 14.877857378191708 12.154935559220466 0 0 0
404 1 13.546937569190838 13.545988657136142 10.800961852381999 0 0 0
408 1 14.897455225829704 14.986461256778574 12.17382901575551 0 0 0
412 1 19.158218507869716 13.660063005985482 10.746268641058549 0 0 0
416 1 20.47551774576801 14.970010379229802 12.125440974661228 0 0 0
1185 1 21.84371721722037 16.261366616435257 10.80416632835932 0 0 0
420 1 24.442800203240836 13.481955700711794 10.98589135732653 0 0 0
424 1 25.86470556053712 14.916175799357536 12.260510476422686 0 0 0
390 1 1.3150579009419539 14.990001012869214 14.902677340819594 0 0 0
428 1 29.92901089949048 13.569310114409035 10.762499655753299 0 0 0
432 1 31.182906441018332 14.990810249685763 12.134731020597316 0 0 0
290 1 32.568654555238865 2.610629348352271 13.542505509751301 -1 0 0
291 1 2.6826228502043508 -0.008280013063616748 13.59965258075996 0 0 0
295 1 4.053222269504638 1.3176090685140205 14.924885626315548 0 0 0
298 1 5.528201067236573 2.6860929545765067 13.568048686322232 0 0 0
299 1 8.047266997438369 -0.02782677682458252 13.413932291281077 0 0 0
444 1 8.127810961694445 2.690766385973984 16.1767401568713 0 0 0
303 1 9.418949958520594 1.3167736847884757 14.779216926399991 0 0 0
306 1 10.767076498042767 2.7198859559970368 13.492633644245272 0 0 0
307 1 13.557073900022703 0.05769402312188032 13.494449088729903 0 0 0
311 1 14.98300595503332 1.315689430957064 14.855042635285013 0 0 0
314 1 16.29235965797194 2.7430508825566116 13.521460899441612 0 0 0
457 1 16.312144432099448 0.0007073264501316779 16.195837161999634 0 0 0
406 1 12.220821670362747 14.973043197281115 14.859317738809485 0 0 0
319 1 20.35066845660243 1.3822478755623067 14.969908054601548 0 0 0
427 1 29.93664901828506 10.883297921350964 13.606713706505147 0 0 0
322 1 21.632072354276307 2.6264216157911946 13.517412982621886 0 0 0
402 1 10.930244880469647 13.60053743386758 13.57929641136952 0 0 0
327 1 25.73372320550594 1.3177520775846494 14.889888286658143 0 0 0
468 1 24.39144996797724 2.6351103403801606 16.27560186164614 0 0 0
330 1 27.08433449541617 2.7258535298999456 13.600378879491755 0 0 0
335 1 31.175340205374116 1.356055688990793 14.985109385838369 0 0 0
431 1 31.19754181028016 12.328443766903918 14.972267002712805 0 0 0
294 1 1.286058716966913 3.988430992102082 14.97136926812319 0 0 0
339 1 2.6331315412981966 5.480844635709432 13.604512780933623 0 0 0
419 1 24.405248120073637 10.763267202362409 13.557212349200706 0 0 0
302 1 6.728508294694354 4.12615759889354 14.961245369489426 0 0 0
347 1 8.131664671450856 5.446620239834997 13.565617918123532 0 0 0
310 1 12.188660159527108 3.940081646069927 14.943798562089114 0 0 0
355 1 13.552539444298299 5.3473938356992194 13.549502603031058 0 0 0
318 1 17.57927044419853 4.020259089770528 14.907191597319523 0 0 0
363 1 18.924788482050058 5.37855873834044 13.626968316387492 0 0 0
326 1 23.000840825337455 3.9645615339834293 14.907147709308122 0 0 0
371 1 24.402321924833952 5.34512017347122 13.544883138571095 0 0 0
334 1 28.47137136344629 4.060017026498936 15.018090404841802 0 0 0
379 1 29.829645606459938 5.461799127551021 13.681021531671373 0 0 0
342 1 1.1971318707682397 9.557489859292692 14.918509824969412 0 0 0
484 1 2.628178377929772 8.128594437036565 16.221552308400074 0 0 0
343 1 4.037501300406753 6.7260935651724845 14.983647433583913 0 0 0
346 1 5.424033141738809 8.15484508401317 13.63937293906338 0 0 0
350 1 6.752320844574324 9.517771570783355 14.991391202710755 0 0 0
423 1 25.769696768584208 12.090216322108592 14.90450681218836 0 0 0
351 1 9.522326425262461 6.7598223675085185 14.960503792342786 0 0 0
354 1 10.869962547310815 8.092564433322975 13.542656282951407 0 0 0
358 1 12.198196424963665 9.489790363669368 14.89487453813728 0 0 0
500 1 13.660803627607155 8.129862357635655 16.28381557040735 0 0 0
359 1 14.963659112969571 6.6874146347675865 14.907338003722137 0 0 0
362 1 16.285744899248765 8.074859415490169 13.664469752011097 0 0 0
366 1 17.74538734941173 9.482081350827173 14.921811531714912 0 0 0
367 1 20.34859527231886 6.787888638419027 14.90218797636695 0 0 0
415 1 20.27592525253465 12.295575052617286 14.877454909714627 0 0 0
370 1 21.733152016767413 8.12590301622617 13.460781587186618 0 0 0
374 1 23.05415300846278 9.457357333602872 14.962206857636327 0 0 0
375 1 25.712725633527555 6.753885164992157 14.956037245934423 0 0 0
378 1 27.17657307025192 8.00761268679278 13.620677168748474 0 0 0
382 1 28.52125643521536 9.441098404539611 14.83811867411255 0 0 0
338 1 32.57074037994201 8.268696705439439 13.57100389607601 -1 0 0
383 1 31.336726818173847 6.819987742999289 14.907983635327254 0 0 0
524 1 29.92752774582913 8.130473543397079 16.21525304998151 0 0 0
387 1 2.655821977985665 10.936582144173094 13.62305818764515 0 0 0
411 1 18.981397041456173 10.913414694704763 13.537360072436197 0 0 0
391 1 4.029744376593694 12.191283501475983 15.057617227556827 0 0 0
395 1 8.125878960052793 10.816891866325932 13.592956138509342 0 0 0
399 1 9.577255831159444 12.1331304057003 14.946746478048762 0 0 0
407 1 14.922457115089173 12.089611175401318 14.904160081024546 0 0 0
403 1 13.56969235863282 10.863459989996382 13.467784328035897 0 0 0
452 1 13.584937342784363 2.588740428509888 16.26109382856708 0 0 0
481 1 0.03981749833625388 5.46840715330767 16.224076784005355 0 0 0
516 1 24.463830762834583 8.210751952798605 16.279870425636172 0 0 0
561 1 21.746781467650468 10.98520144798088 16.188099695427685 0 0 0
569 1 27.222407848500215 10.829596479592627 16.245211345493836 0 0 0
20 1 13.6486338884742 2.682322071475239 -0.021387763492882073 0 0 0
81 1 21.794617110879607 5.312782464522114 -0.010348697079678004 0 0 0
52 1 2.576053034730757 8.118933307938834 -0.029902504685182407 0 0 0
76 1 19.085876311937984 8.10119180615145 -0.0017041022190369404 0 0 0
84 1 24.623642761836823 8.076129217016188 0.06417316349675417 0 0 0
433 1 32.57152180842704 0.009278967380012208 16.413729305659288 -1 0 0
435 1 2.666777946032344 0.06982152764209187 19.139528390650614 0 0 0
436 1 2.589726999613846 2.6381937496663532 16.304923545180564 0 0 0
437 1 1.3175507738320646 1.3772142370672706 17.833869013557457 0 0 0
818 1 32.56907017250755 13.554595250213598 29.803843327156873 -1 0 0
442 1 5.487384086974344 2.6751350083797987 19.01431673830753 0 0 0
1627 1 29.993369827483974 16.285722348310387 29.83931098929761 0 0 0
445 1 6.826802745401064 1.3406760670219544 17.678981778159994 0 0 0
450 1 10.857454412135686 2.657503873030813 18.862933780539677 0 0 0
905 1 27.074951344634556 16.196018734803083 32.589416862552454 0 0 -1
745 1 16.341589872524835 0.0012216377709819426 27.17155157410915 0 0 0
453 1 12.232063091483505 1.2362834832756031 17.630611720356534 0 0 0
458 1 16.28162713086744 2.6829472137203787 19.008119276326617 0 0 0
461 1 17.670292652592472 1.2822950203028167 17.619811579812815 0 0 0
858 1 27.150784904178394 13.557043489929502 29.872036663076003 0 0 0
862 1 28.51320232998702 14.912061475510336 31.241163644202246 0 0 0
466 1 21.763332395788716 2.6815851673297937 18.89840679520501 0 0 0