LAMMPS data file via write_data, version 19 Nov 2024, timestep = 60100, units = metal

1728 atoms
1 atom types

-0.02573949579002388 32.60573949579096 xlo xhi
-0.02573949579002388 32.60573949579096 ylo yhi
-0.02573949579002388 32.60573949579096 zlo zhi

Atom Type Labels

1 Si

Masses

1 28.0855

Atoms # atomic

2 1 32.56838744771472 2.8333821435493856 2.743870774669074 -1 0 0
1187 1 24.3282890273381 16.236225061900928 13.644374226946006 0 0 0
5 1 1.2592897081573582 1.316601179629453 1.4466913587448191 0 0 0
1195 1 29.993172350024007 16.253383213643524 13.538747944156771 0 0 0
10 1 5.353201610991731 2.6070118461657605 2.653422794805918 0 0 0
1171 1 13.56846256342571 16.250597008880654 13.515887023410585 0 0 0
13 1 6.759539387480776 1.3057849196553755 1.2265150344189861 0 0 0
18 1 10.726009231747778 2.721686721587265 2.6588935111684755 0 0 0
21 1 12.133755922698844 1.3903527283333577 1.377921288678387 0 0 0
426 1 27.252331482816732 13.553064443062393 13.574841032102652 0 0 0
26 1 16.264860611087986 2.5909446196327686 2.662566281283223 0 0 0
29 1 17.661510654018006 1.2988577472851908 1.3287711083510563 0 0 0
1155 1 2.6993316437354964 16.23994772503145 13.57233116443981 0 0 0
34 1 21.705883637952997 2.757455092108144 2.6139493219123793 0 0 0
37 1 23.127909262426115 1.452567782317756 1.2735794331234784 0 0 0
35 1 24.50769776042903 -0.01131866245211764 2.7381473847298814 0 0 0
329 1 27.133832534604107 0.04501575474787245 10.793222865388524 0 0 0
42 1 27.09071022908915 2.9159022825920555 2.6398158911971383 0 0 0
45 1 28.478634242918222 1.4016677039051213 1.3733919643117622 0 0 0
51 1 2.7874611143840125 5.401934213673091 2.743854420858532 0 0 0
8 1 4.074123085789563 4.0481955148312645 1.3336375554181634 0 0 0
59 1 8.061667646983716 5.407982253792794 2.7094732492473836 0 0 0
16 1 9.381575102725764 4.0939645802378895 1.3655780410881613 0 0 0
65 1 10.745404317103604 5.530642950241923 -0.02132395006390844 0 0 0
67 1 13.592334603062751 5.489725558534346 2.7566900134042926 0 0 0
24 1 14.929191262132106 4.1272684281875796 1.3296656424389832 0 0 0
73 1 16.309283181089153 5.517145573990844 0.06610543863491576 0 0 0
32 1 20.3763053696086 4.112751577340949 1.2841272174511509 0 0 0
75 1 18.992844291132425 5.536987611133898 2.641724138525058 0 0 0
40 1 25.752495549268605 4.188767300168983 1.2559680330754945 0 0 0
83 1 24.397440132284117 5.466413906307927 2.6792125524643486 0 0 0
171 1 19.140382449524516 0.08190154868904642 8.148180841502326 0 0 0
147 1 2.663718959788052 0.01760801159208114 8.088797083978642 0 0 0
48 1 31.218387914650215 4.043234015574445 1.2693721273208471 0 0 0
91 1 29.958811857111986 5.4779798977680825 2.6726918650976086 0 0 0
50 1 0.0604770141096001 8.120933403470419 2.702012202231964 0 0 0
53 1 1.3818822757489198 6.728398325532071 1.336358741282268 0 0 0
56 1 3.9677133731711964 9.509869961738822 1.2237829638711502 0 0 0
58 1 5.452316133335475 8.227468276794221 2.6785496419602635 0 0 0
61 1 6.769220736201158 6.886961434667891 1.3047011684147352 0 0 0
64 1 9.404987438650432 9.404596621465007 1.3279853851248262 0 0 0
66 1 10.89425334772781 8.254356267497066 2.7586097307127875 0 0 0
69 1 12.196796529472415 6.859818608959449 1.332396560563961 0 0 0
72 1 14.927391190913525 9.517886493084312 1.3813148675496987 0 0 0
74 1 16.349087471666028 8.22022530582842 2.7875668067878223 0 0 0
77 1 17.61500616866401 6.900250541925044 1.3481695271822707 0 0 0
1051 1 29.817544982479333 16.21578466671517 8.130811030749829 0 0 0
80 1 20.334269877672146 9.550916399950868 1.2627633732566774 0 0 0
82 1 21.658551863849382 8.12735639944935 2.63789008126514 0 0 0
85 1 23.090596010760898 6.781978397659106 1.3161065985404603 0 0 0
145 1 0.10059166302992395 0.017839306079004302 5.309331099946415 0 0 0
88 1 25.77378201510919 9.375598431051797 1.3941244784895135 0 0 0
90 1 27.177990626848427 8.117548631352646 2.7336936651929404 0 0 0
93 1 28.566648524614997 6.770272536831618 1.3896439372274436 0 0 0
96 1 31.27549711919863 9.62226712753163 1.4265491804556432 0 0 0
99 1 2.730992533869076 10.91938413272186 2.8064624372522533 0 0 0
101 1 1.39545085998336 12.277452524892313 1.4471406819643207 0 0 0
107 1 8.299034737105723 10.864877513385405 2.713529002011228 0 0 0
109 1 6.765928093145676 12.171724621353059 1.3482136881876143 0 0 0
113 1 10.900508881705722 10.69692608885362 0.06714035855859599 0 0 0
115 1 13.591945805899924 10.883010268917037 2.825541092820692 0 0 0
117 1 12.245681776173642 12.198559966590286 1.2894639913435582 0 0 0
185 1 27.120582828667462 0.08365090983105006 5.27221182572523 0 0 0
125 1 17.55279160626437 12.215391318759378 1.3723394642792885 0 0 0
123 1 18.92821620143118 10.797667304746989 2.7272435852354278 0 0 0
133 1 23.005005960354094 12.210429381637177 1.292244395774137 0 0 0
131 1 24.438822705873985 10.819159964322806 2.6848743364954863 0 0 0
141 1 28.45602223572475 12.276898953134342 1.3520653747598017 0 0 0
97 1 0.05930825279813945 10.951333591794256 -0.017958868494968812 0 0 0
139 1 29.949322236898865 11.038271102806787 2.652498186979934 0 0 0
430 1 28.504247894400482 14.998210074504872 14.969769949422949 0 0 0
104 1 4.056292730101449 14.999963428469895 1.240418304738741 0 0 0
106 1 5.451955926914034 13.559842575614521 2.697399346506362 0 0 0
108 1 8.107116423145342 13.501321023601019 0.08217061725009744 0 0 0
112 1 9.36453080660073 14.984997810947956 1.3922694398045041 0 0 0
114 1 10.81700050872489 13.553002912853222 2.6305199986003873 0 0 0
418 1 21.694487649645776 13.612076504188977 13.699473365669549 0 0 0
120 1 14.803503996459577 15.052643708788906 1.3598464844641434 0 0 0
122 1 16.138826935612084 13.666116926490686 2.752887073050403 0 0 0
128 1 20.310857352126103 15.008546284824167 1.356478597261024 0 0 0
422 1 23.042804690492936 14.943044329083003 15.029678662745516 0 0 0
556 1 18.908748230095124 13.52223265668115 16.219289397438367 0 0 0
130 1 21.63217262897194 13.624937329873681 2.702295283350898 0 0 0
136 1 25.834460299658964 14.933658027032134 1.4154149889641554 0 0 0
138 1 27.20197110848204 13.614093685888133 2.7972270793378713 0 0 0
98 1 32.580936643979186 13.629185534992187 2.736324794074783 -1 0 0
907 1 29.834416300179367 16.262378952061656 2.7852343195952787 0 0 0
144 1 31.272398437886288 14.882988518380573 1.3398012871241358 0 0 0
148 1 2.6883075549516855 2.7247950733965625 5.365176380502868 0 0 0
7 1 4.080912704693132 1.3267033121838137 4.0442074935553585 0 0 0
156 1 8.117816718542555 2.6490878833896545 5.386614325494266 0 0 0
15 1 9.414089272956382 1.302572095272382 3.937094857780732 0 0 0
161 1 10.71841144835271 0.1290724622719826 5.428568149340327 0 0 0
164 1 13.531449908413816 2.7291221727464814 5.3381178601389045 0 0 0
23 1 14.964462344229716 1.3405743982288745 4.081862437777576 0 0 0
31 1 20.404823537934725 1.3801636683019523 4.00409510269118 0 0 0
172 1 19.01008653526545 2.7704697334860104 5.251334732902963 0 0 0
1179 1 18.934503263363442 16.175481891867893 13.424480824123165 0 0 0
39 1 25.805244608504164 1.4177052984085454 3.928527048439145 0 0 0
180 1 24.54053924367458 2.7547770832108402 5.354892257021676 0 0 0
47 1 31.27324070783626 1.3948258225640393 3.94677735989104 0 0 0
188 1 29.873351683364607 2.746240640897051 5.372647201700865 0 0 0
6 1 1.3465060271052196 4.14038592773583 4.113188791599857 0 0 0
193 1 32.59279928870698 5.481165617956085 5.502489149301551 -1 0 0
201 1 5.42783712571442 5.375147279987836 5.5083196229543505 0 0 0
14 1 6.741492660456467 4.046600278184495 4.042947658802329 0 0 0
209 1 10.867222836007642 5.367171038400493 5.4020537628281655 0 0 0
22 1 12.147538708603845 4.071916763517107 4.080934043022755 0 0 0
30 1 17.615112796304437 4.060462225970568 3.9356715705025014 0 0 0
217 1 16.35375866407676 5.397926271436389 5.2703023062685235 0 0 0
38 1 23.150289226997117 4.149143461389818 4.116290163113765 0 0 0
225 1 21.725378216044586 5.4806696878553804 5.418765818982657 0 0 0
46 1 28.489747104930448 4.112947466065846 3.953069002768269 0 0 0
233 1 27.134237661081297 5.4889273744743 5.209170380474111 0 0 0
54 1 1.2792881898876116 9.578937784218406 4.076022756043084 0 0 0
196 1 2.582128686546471 8.185026831881999 5.408796131109946 0 0 0
55 1 4.121321359213344 6.8591176543787435 4.1381565425778915 0 0 0
62 1 6.747286666145036 9.5225998642699 4.107352586946792 0 0 0
204 1 8.037686347477209 8.080647036686921 5.355613334974885 0 0 0
63 1 9.482209940193092 6.7169157634524375 4.014964430917338 0 0 0
70 1 12.245939097569599 9.572835536386126 4.108758236487638 0 0 0
212 1 13.61818507875795 8.220814598296466 5.423604123743322 0 0 0
71 1 14.98638314518745 6.8515694786717445 4.045419542429977 0 0 0
78 1 17.702281927789105 9.588965661661902 4.160198231910903 0 0 0
79 1 20.3149735719803 6.843277842176913 4.079749192465625 0 0 0
220 1 18.99474692431508 8.174841042161237 5.4919571789537835 0 0 0
86 1 23.074921611362484 9.410194161247746 4.0921477480052975 0 0 0
87 1 25.78887711800646 6.809501259959784 4.0530946363963105 0 0 0
228 1 24.471862550299125 8.077448615160458 5.5223828825039885 0 0 0
94 1 28.553977604146112 9.569434619260216 3.984565851679911 0 0 0
95 1 31.366268940447185 6.782544532080842 4.067136479682726 0 0 0
236 1 29.90481634816283 8.195599478998124 5.370961455140697 0 0 0
241 1 0.004916464811461039 10.978868460842543 5.527098542092858 0 0 0
103 1 4.111362932294012 12.180681661222073 4.094967851265681 0 0 0
249 1 5.374178117518366 10.859290619903023 5.547620045596463 0 0 0
111 1 9.548691124655981 12.284618624147578 4.097270268569051 0 0 0
257 1 10.871135774583315 10.801300337893109 5.42075079124503 0 0 0
119 1 14.894604795286407 12.277915978586584 4.047286190627236 0 0 0
265 1 16.297695292653955 10.991238999450566 5.400930109077629 0 0 0
127 1 20.46647377041774 12.112171617575921 4.050592905397875 0 0 0
273 1 21.7419149737594 10.816506617536733 5.4625438438337905 0 0 0
135 1 25.801585486743637 12.195539143260103 4.111935478196713 0 0 0
281 1 27.171408148082772 10.830278570167863 5.427977739209784 0 0 0
143 1 31.26128545687446 12.266744363788009 4.116568930174365 0 0 0
1009 1 0.029744994485935785 16.221946276690478 5.5275611972763015 0 0 0
102 1 1.3984107409616469 14.931180715265308 4.052108265746933 0 0 0
244 1 2.7323366999894074 13.61179640201289 5.404330809631575 0 0 0
110 1 6.780235107077342 14.956890070969175 4.155419542994638 0 0 0
252 1 8.140235605709696 13.613702678240921 5.47420008694918 0 0 0
118 1 12.173929448814715 14.855588413250706 3.9022329751619753 0 0 0
260 1 13.505326349523886 13.560879880808951 5.3693838440602235 0 0 0
169 1 16.355584409951813 0.016592580310039295 5.383379212361031 0 0 0
126 1 17.585868243879432 14.912365742186394 4.026146646274922 0 0 0
268 1 18.99524040173515 13.442030492008445 5.33017180830279 0 0 0
410 1 16.175460575173503 13.538135809117913 13.434987015229988 0 0 0
134 1 23.003343987199003 14.992156717792819 4.076255852761571 0 0 0
276 1 24.416106699363727 13.594972572946299 5.424318507359544 0 0 0
414 1 17.53953388588099 14.858547923556618 14.823831007632405 0 0 0
142 1 28.53364748535095 14.909106853184284 4.138552213602478 0 0 0
284 1 29.88911469712373 13.584657715265271 5.409339735518182 0 0 0
146 1 32.54656828738726 2.6658300535529293 8.18720862516447 -1 0 0
149 1 1.3119711862974108 1.4743518241095768 6.739207982903096 0 0 0
151 1 4.075683355051844 1.4498229164476735 9.506360530390422 0 0 0
154 1 5.405858350484828 2.8011656187791423 8.023467402213234 0 0 0
155 1 8.131397931206346 0.02055856639347565 8.24604187514163 0 0 0
157 1 6.734962897783361 1.3047698131509613 6.8512046335377565 0 0 0
159 1 9.57690022145295 1.2901468343620566 9.473804803356439 0 0 0
162 1 10.89300758017597 2.756902812102794 8.165908502170709 0 0 0
163 1 13.599099446724416 0.06286456595485601 8.077327778961976 0 0 0
165 1 12.201786866007755 1.4203439299583411 6.770101686002336 0 0 0
167 1 14.935337737144371 1.4216076132960849 9.353914872361349 0 0 0
170 1 16.3251594236886 2.7339008007979055 8.022430749938012 0 0 0
173 1 17.79035655907443 1.376971104983598 6.666435409282897 0 0 0
175 1 20.43831550186076 1.3695246199744535 9.628563439974878 0 0 0
178 1 21.712382873244266 2.648979793473184 8.075015417577639 0 0 0
181 1 23.067327642338086 1.3238291561078825 6.56506884976068 0 0 0
179 1 24.42792681971835 0.035294302181378426 8.020295029523037 0 0 0
183 1 25.798039246013513 1.3855922086868286 9.443953071534635 0 0 0
186 1 27.228714133708237 2.7075567606853226 8.087854830839644 0 0 0
189 1 28.530949738806225 1.3519199121104726 6.685599961175986 0 0 0
315 1 18.97587655146314 0.08080187183563226 13.58074991461703 0 0 0
191 1 31.188424317296004 1.2223137728857998 9.609102373883164 0 0 0
150 1 1.3921616755000208 4.008940632965268 9.591791465868482 0 0 0
195 1 2.636624229758208 5.360872354575924 8.192391406220855 0 0 0
152 1 4.022457190668209 4.148500192916757 6.7411632610534165 0 0 0
158 1 6.891334494619162 4.110718651322549 9.409979373275501 0 0 0
203 1 8.245671689467626 5.365455644536505 8.108719685283543 0 0 0
160 1 9.534979651108857 4.07708023459987 6.7630485247998395 0 0 0
166 1 12.403340954067918 4.113171741742027 9.364622788588767 0 0 0
211 1 13.689314837083954 5.456961931752397 7.9772190056092285 0 0 0
168 1 14.950216098213195 4.050820856560049 6.612549805853379 0 0 0
174 1 17.672296977300782 4.052244373815553 9.405731058141354 0 0 0
176 1 20.38726325838722 4.034068337462546 6.724336615890913 0 0 0
219 1 19.163723832224296 5.342937038263671 8.161559653847107 0 0 0
182 1 23.12953528373053 4.009348045528972 9.353852188846824 0 0 0
184 1 25.9443376847188 4.128872902661922 6.707643989641639 0 0 0
227 1 24.505914290664727 5.388027823081867 8.140043851013509 0 0 0
190 1 28.552404818908954 4.002731829209588 9.400241816720838 0 0 0
192 1 31.302634457081783 4.05708567179892 6.756516424378749 0 0 0
235 1 29.89608298929704 5.4194068950990655 8.098089695497372 0 0 0
194 1 0.06679522981337616 8.24382170829907 8.174213756000599 0 0 0
197 1 1.2994429090557689 6.9933297695997645 6.849236341909673 0 0 0
198 1 1.457652493767384 9.576362065621195 9.558049180438832 0 0 0
199 1 4.089531888683246 6.657645651151878 9.508040845042775 0 0 0
200 1 4.032420898465632 9.480257077242094 6.8656032454192335 0 0 0
202 1 5.427701688165527 7.986383082764167 8.106583729404289 0 0 0
205 1 6.839376600576744 6.696012084116609 6.753292403299159 0 0 0
206 1 6.781760921238139 9.400999457549622 9.498838087838418 0 0 0
207 1 9.458030384008834 6.721155734241369 9.512061884703337 0 0 0
208 1 9.482434916771515 9.331509834002006 6.794318854502044 0 0 0
210 1 10.895633644946031 8.144463405777328 8.22593639589485 0 0 0
213 1 12.17397686088869 6.8079638895224805 6.7129015166746795 0 0 0
214 1 12.251227963468576 9.485952040001324 9.416533807594497 0 0 0
215 1 14.98443450483863 6.871993981493156 9.42043506880529 0 0 0
216 1 15.048801202106164 9.642115396250608 6.7579754999892 0 0 0
218 1 16.389686285650473 8.24627031766044 8.107719708932306 0 0 0
221 1 17.72346564974572 6.688223697443596 6.914416652627146 0 0 0
222 1 17.67076676702709 9.654075064830224 9.480194457831285 0 0 0
223 1 20.33989349611528 6.856040474948414 9.397231622850567 0 0 0
224 1 20.39705439843437 9.506106841402731 6.864572549765807 0 0 0
226 1 21.786880878810482 8.158534394043471 8.210493001864855 0 0 0
229 1 23.044994124970586 6.717864268429368 6.808102138175163 0 0 0
230 1 23.15911342596148 9.515952983727553 9.489152492227781 0 0 0
231 1 25.7480891307409 6.730744617254101 9.585814650623378 0 0 0
232 1 25.793761707280765 9.448698726146931 6.805496959270646 0 0 0
234 1 27.059658800398328 8.068667954514071 8.14644024291515 0 0 0
237 1 28.443206117721594 6.797505895293591 6.724643656186876 0 0 0
238 1 28.49554883504977 9.458802395566419 9.367951049998458 0 0 0
239 1 31.38813247726359 6.746910464917863 9.477754627896495 0 0 0
240 1 31.29726784042265 9.496815933621527 6.810706383098716 0 0 0
243 1 2.7552785285842187 10.926302270642836 8.107201535315118 0 0 0
245 1 1.4696715756295682 12.362642274066248 6.7487352240355065 0 0 0
247 1 4.199438880222222 12.300086740447886 9.359563584924155 0 0 0
251 1 8.124259265837216 10.757775505359318 8.185722023393847 0 0 0
253 1 6.844786887819824 12.075336195174083 6.768787715115279 0 0 0
255 1 9.563146824763415 12.241844156797741 9.484495958841583 0 0 0
259 1 13.597492976316149 10.909977631874874 8.135812657589902 0 0 0
261 1 12.186417827739701 12.1945881283062 6.790843153850092 0 0 0
263 1 14.905713455113847 12.28480843983787 9.51906686703931 0 0 0
269 1 17.699187597676257 12.236413650983517 6.765275159997735 0 0 0
267 1 19.104758585320543 10.870272146199664 8.09291997424481 0 0 0
271 1 20.3886942909502 12.25095425029154 9.459675306107158 0 0 0
277 1 23.043126755926984 12.189405816022177 6.795720404684276 0 0 0
275 1 24.43285372053851 10.875461389914316 8.148549258636457 0 0 0
279 1 25.864306011036987 12.142379842000834 9.515437077335385 0 0 0
285 1 28.51709576316182 12.1926953748324 6.729499572424562 0 0 0
283 1 29.914388649303646 10.923136178675717 8.090986136446094 0 0 0
287 1 31.24879319772698 12.232210978899996 9.493251296280459 0 0 0
406 1 12.25864843901182 15.05550023159084 15.060471048623972 0 0 0
242 1 0.04082031998989715 13.628865447900713 8.156729432377993 0 0 0
246 1 1.3184139979974903 15.011280581731551 9.684537649809652 0 0 0
248 1 3.966281786173149 14.902619285211134 6.882520530823816 0 0 0
250 1 5.564900159491291 13.64759817796095 8.055985020286428 0 0 0
254 1 6.770897816067892 15.06507925216901 9.496247343975329 0 0 0
256 1 9.44666830463802 15.047769215308074 6.688952662106656 0 0 0
258 1 10.754179427597913 13.643276618754518 8.041633331647233 0 0 0
262 1 12.163814581359723 14.934832816338963 9.385092802904332 0 0 0
264 1 14.97147515063293 14.950415284545976 6.7452165564651905 0 0 0
266 1 16.319917876649114 13.54012170542477 8.092653060223567 0 0 0
270 1 17.624761587704096 14.913010732876032 9.43828597782754 0 0 0
1035 1 19.05356061545347 16.282808273921226 8.22505182698592 0 0 0
272 1 20.367825488385098 14.994104025466777 6.7459583956679685 0 0 0
274 1 21.771484355456735 13.581439963880614 8.145108117572827 0 0 0
278 1 23.088343079360317 14.915849403927055 9.578528794552561 0 0 0
1043 1 24.37702213197583 16.11654887720235 8.093187421965956 0 0 0
280 1 25.882380037642204 14.905327112510433 6.70573307797206 0 0 0
282 1 27.161005718777414 13.468445193274448 8.130137464422761 0 0 0
286 1 28.502052285126407 14.927727657976973 9.527733547830252 0 0 0
288 1 31.24281389031423 14.850701699450035 6.860106809048844 0 0 0
292 1 2.7770383348926786 2.7428542846433523 10.947143610282827 0 0 0
293 1 1.3150446639839375 1.395686882912484 12.262384369293002 0 0 0
297 1 5.403153169613853 -0.01554421686783298 10.881484766509248 0 0 0
300 1 8.125042958372237 2.7648058401647093 10.733119536881745 0 0 0
301 1 6.713635904649844 1.4743282259975916 12.182432167575763 0 0 0
402 1 10.896869935578847 13.690128477341382 13.675034035670803 0 0 0
308 1 13.59789145382315 2.6898686828813765 10.727563713009552 0 0 0
309 1 12.244979181574283 1.3306102005619602 12.005697367570216 0 0 0
317 1 17.649371976475692 1.34755293847077 12.160204700457818 0 0 0
316 1 19.034982477045904 2.6776823245350267 10.813139302963183 0 0 0
325 1 23.150830973855633 1.3289404749218732 12.246740517863204 0 0 0
324 1 24.418387845338355 2.6785043533450654 10.836295066798963 0 0 0
333 1 28.510762425604806 1.338753207663482 12.278026806725718 0 0 0
289 1 32.58928287591139 0.05668952194944623 10.918160648143937 -1 0 0
332 1 29.824017414687745 2.720610419373958 10.900395945030823 0 0 0
296 1 4.2047351578058 4.1469122878600855 12.205669940840204 0 0 0
345 1 5.538280611332034 5.442396875114485 10.889751558961807 0 0 0
304 1 9.515277334950797 4.052524040338639 12.130751545186579 0 0 0
353 1 10.872931934778396 5.345811133806019 10.744702023325067 0 0 0
312 1 14.934576173866647 4.026973125501107 12.186748412195774 0 0 0
361 1 16.237835342563272 5.42384373209588 10.766088598971356 0 0 0
320 1 20.41669213094278 4.056791112842167 12.25781538840068 0 0 0
369 1 21.690470621408252 5.3592038417632795 10.629044573520135 0 0 0
328 1 25.83158834251287 4.119629806343292 12.118266045148461 0 0 0
377 1 27.199880165343195 5.374507457071911 10.809395443538 0 0 0
337 1 32.58279962318623 5.404794452184845 10.895492455662117 -1 0 0
336 1 31.257457815451268 4.035987080411963 12.134090436305664 0 0 0
340 1 2.8433615064739124 8.055431574680112 10.856912570619965 0 0 0
341 1 1.2559812590317518 6.758204091668139 12.269228433415908 0 0 0
344 1 4.186409915578678 9.518519798250091 12.074476622324859 0 0 0
348 1 8.126353939960495 8.033616109538956 10.884269514075305 0 0 0
349 1 6.887101549837181 6.761499064869775 12.330876940893804 0 0 0
352 1 9.504431619972536 9.43538780823552 12.158842904719378 0 0 0
356 1 13.54280685139902 8.061315016373484 10.851961217398003 0 0 0
357 1 12.01729783021002 6.733696716501828 12.132642627113576 0 0 0
360 1 14.870352741366592 9.494440041461504 12.194064895921406 0 0 0
365 1 17.61015033481148 6.778468785411289 12.178568549587332 0 0 0
364 1 18.953175629049095 8.211164853888315 10.85213714768735 0 0 0
368 1 20.33423566465433 9.527385932067782 12.123119768371877 0 0 0
373 1 23.07855704660945 6.76039823852289 12.008684690525163 0 0 0
372 1 24.568214440794424 8.157519705408294 10.873316272943137 0 0 0
376 1 25.8786570945902 9.505241760005697 12.294218959522198 0 0 0
381 1 28.63963886117974 6.7553179847492935 12.009328023338675 0 0 0
380 1 30.06767747834813 8.227635986773107 10.79484362167493 0 0 0
384 1 31.21313807298929 9.57118035394512 12.194396864895358 0 0 0
385 1 0.012857301303763204 10.87540681310411 10.896707756688457 0 0 0
389 1 1.3872054921797703 12.23324524620052 12.248545478671273 0 0 0
393 1 5.541208467448702 10.915386252118134 10.746633555278393 0 0 0
397 1 6.869764624834833 12.266927451788552 12.248413665447709 0 0 0
401 1 10.89713532210989 10.8766175317395 10.813506391749616 0 0 0
405 1 12.187468458126036 12.400843238883539 12.169754068420009 0 0 0
409 1 16.220987788161256 10.823770592458567 10.955759690648563 0 0 0
413 1 17.55499592002856 12.164127732095128 12.242690598797 0 0 0
417 1 21.82719364578103 10.884578590078021 10.759357545313565 0 0 0
421 1 23.058713737890844 12.27572450501683 12.19331424068347 0 0 0
425 1 27.099535752961483 10.80060624263251 10.732747058702607 0 0 0
429 1 28.537943430786488 12.154119746431851 12.143939559204881 0 0 0
540 1 8.130839851968545 13.58738599150446 16.211159393987394 0 0 0
388 1 2.7967070534555054 13.50192798327919 10.87980590639604 0 0 0
398 1 6.848982581248276 14.993189987413416 15.037857289151882 0 0 0
392 1 4.135999681279811 14.85424238612431 12.41363994706511 0 0 0
396 1 8.18666206756701 13.639226426119988 10.758744556766015 0 0 0
1169 1 10.812771612952954 16.136904364350162 10.813130721505567 0 0 0
400 1 9.437688206132115 14.94949433980686 12.24145872247492 0 0 0
404 1 13.543973901298981 13.708561205486609 10.73636668907601 0 0 0
394 1 5.56028194114756 13.501332765076295 13.736192619305566 0 0 0
408 1 14.8854657942049 15.012041181552583 12.120002378544077 0 0 0
412 1 18.90235815506881 13.490949577176389 10.810792108327275 0 0 0
416 1 20.334938964197484 14.836851330066146 12.196172262191068 0 0 0
1185 1 21.624769819280406 16.206822076015772 10.84847093398912 0 0 0
420 1 24.631399621549452 13.487970886395523 10.931125272081601 0 0 0
424 1 25.864291909236425 14.919451848470514 12.317303417130015 0 0 0
428 1 29.91092541271825 13.628359262131935 10.83588397929402 0 0 0
432 1 31.2861658274538 14.851287262934287 12.177356054956899 0 0 0
290 1 -0.005613849615258432 2.727250956943089 13.665771914669442 0 0 0
295 1 4.077288743153198 1.378691054094673 14.927508917961688 0 0 0
298 1 5.35581017290505 2.702567817960726 13.536971595549637 0 0 0
299 1 8.090196380489463 0.01462236345791139 13.530413301161392 0 0 0
444 1 8.071159495193053 2.696409682678326 16.200769197459678 0 0 0
303 1 9.503610021627537 1.2878166912198918 14.835015272605615 0 0 0
306 1 10.820229001993143 2.7544940350191753 13.449644621338283 0 0 0
386 1 32.48682806367198 13.546208127353083 13.560406152247728 -1 0 0
311 1 14.980903371126589 1.292082545393916 14.916611753165057 0 0 0
314 1 16.251887727878554 2.690136226993789 13.508243651351677 0 0 0
319 1 20.406278316930845 1.2855270860929617 14.942521194563003 0 0 0
460 1 18.99123884443073 2.697730581045959 16.25872617783362 0 0 0
322 1 21.845874498963614 2.724357828125385 13.609148802205628 0 0 0
390 1 1.293703069905713 14.826836459052675 14.887033577681919 0 0 0
323 1 24.49566208564839 0.04681656751133593 13.588328835237922 0 0 0
327 1 25.77826894308603 1.3522195355054656 14.996392107758588 0 0 0
153 1 5.462051351090267 0.004302687525637339 5.375537826068247 0 0 0
330 1 27.090321260006746 2.745014664538938 13.611835278474773 0 0 0
335 1 31.261495566705378 1.2620596081218594 14.978797831343602 0 0 0
294 1 1.43702612910018 4.068584396684311 14.982841917302238 0 0 0
339 1 2.6788966455451684 5.493553800948148 13.5790627846612 0 0 0
1025 1 10.88318139425621 16.287084321514175 5.362441311595583 0 0 0
302 1 6.626962691423031 4.0657355808688385 15.026959905068964 0 0 0
347 1 8.206697006359756 5.310205897771187 13.681451053406546 0 0 0
497 1 10.928734456094194 5.255534652530709 16.256760304299597 0 0 0
310 1 12.243812394446083 4.043656132527488 14.7992653981018 0 0 0
355 1 13.51314002794834 5.504306195107939 13.550318173449892 0 0 0
318 1 17.580891706724493 4.029088999308548 14.798332312810013 0 0 0
505 1 16.32790465595186 5.447161025563902 16.206812364386618 0 0 0
363 1 19.02017554666009 5.438532009636248 13.488024527403095 0 0 0
326 1 23.169725778752497 4.01899809308238 14.85173575196304 0 0 0
513 1 21.804215695339654 5.315489891233487 16.190634028672772 0 0 0
371 1 24.438810081268876 5.389553162468481 13.485414446136916 0 0 0
334 1 28.520999000040966 3.9957031715286324 14.98880332269739 0 0 0
379 1 29.916055451245942 5.373905855714098 13.555613505718904 0 0 0
338 1 -0.0017117828220989191 8.143665993881237 13.57165298252974 0 0 0
342 1 1.2463724822101367 9.70086770062959 14.80670761706828 0 0 0
484 1 2.6361317733426572 8.278952450929642 16.196806187120295 0 0 0
343 1 3.9702526497000448 6.883465737245203 14.843811130846658 0 0 0
346 1 5.36226040822182 8.208430105268585 13.503195332970881 0 0 0
350 1 6.89513202127729 9.50813545031352 14.807477137018973 0 0 0
351 1 9.535361389026045 6.7262235363626175 14.972632102426447 0 0 0
354 1 10.842673788582893 8.132467331771707 13.616009056772462 0 0 0
358 1 12.217692387959243 9.508187062780966 14.910475589723612 0 0 0
41 1 27.278145098508784 0.05470387485235051 0.05454586742531261 0 0 0
359 1 14.880713133854684 6.910167790804548 15.003794016456084 0 0 0
362 1 16.271244597260324 8.224488745120619 13.644876421529515 0 0 0
366 1 17.649983097648732 9.522786054936802 15.034032035017294 0 0 0
367 1 20.357692584537485 6.734795715647316 14.927709656584284 0 0 0
370 1 21.78497306019061 8.181430115409842 13.564138986710027 0 0 0
374 1 23.183310044624566 9.35049525947765 14.956822165613223 0 0 0
375 1 25.886166566463064 6.71207218723257 14.827810520917858 0 0 0
378 1 27.176295172801797 8.054825607874468 13.507021705000216 0 0 0
382 1 28.539371260562408 9.292620278900419 14.894126595956367 0 0 0
383 1 31.39780998260034 6.691332021013206 14.828647870241173 0 0 0
524 1 30.094988460114166 7.9904880756042775 16.236007506795445 0 0 0
387 1 2.8042606022671532 10.900055416334084 13.5557901183189 0 0 0
391 1 4.061149311996935 12.2477157047843 15.046027927004 0 0 0
395 1 8.203137882519094 10.853037934568105 13.546731037342093 0 0 0
399 1 9.527373009370294 12.22637910323643 14.963176802996761 0 0 0
403 1 13.496003412181135 10.853410139534276 13.534872705050855 0 0 0
407 1 14.809216395656852 12.193621595825535 14.856814170467777 0 0 0
415 1 20.351426128996003 12.147573648357858 14.906431330468793 0 0 0
411 1 18.982837775815597 10.83216901261004 13.543885192241602 0 0 0
423 1 25.91642815661576 12.269577326425456 14.908277491865276 0 0 0
419 1 24.419984036817983 10.868079365106558 13.615164717870506 0 0 0
431 1 31.174422240705344 12.155674120528987 14.967607624507941 0 0 0
427 1 29.76033639011842 10.799596370894598 13.633697724902541 0 0 0
27 1 19.06288412046188 -0.01896770362458966 2.594173061784442 0 0 0
881 1 10.737224375819807 16.285366785481372 0.030099589636011684 0 0 0
11 1 8.02617196212797 -0.015736389084779034 2.5746414020352577 0 0 0
140 1 29.931327784420155 13.554678122704292 0.059478050308200636 0 0 0
452 1 13.606624061205046 2.7212394247066203 16.104984787797214 0 0 0
1 1 -0.023072712882716263 -0.005928377376697824 0.016076622472560587 0 0 0
132 1 24.423410342777437 13.517618140847512 0.042894560677090965 0 0 0
481 1 0.08569269681176905 5.391694710278214 16.289521865499104 0 0 0
492 1 8.133440238975153 8.062159030443866 16.264598925575815 0 0 0
516 1 24.51894529595308 8.082138354045506 16.183191082965514 0 0 0
537 1 5.52062535592688 10.802903386086628 16.224383557495116 0 0 0
545 1 10.819302074142323 10.827963391213208 16.25335385115132 0 0 0
561 1 21.77116155819296 10.663908026687771 16.232517753714177 0 0 0
569 1 27.200109977080125 10.733706962733883 16.283282367933356 0 0 0
564 1 24.517967547282428 13.52689269101985 16.28390998055465 0 0 0
124 1 18.95156061371902 13.5479894315375 0.010295284215523282 0 0 0
4 1 2.6167077539109376 2.5851598698886167 0.027351479682245383 0 0 0
20 1 13.516743568159129 2.727491177522074 0.028230707794712373 0 0 0
44 1 29.967169820600606 2.54758329735323 -0.014863744712862115 0 0 0
57 1 5.5172373434913204 5.356321324212723 -0.010043394559637875 0 0 0
68 1 13.59379063265973 8.155653412769215 0.028092045323660386 0 0 0
92 1 29.96911288715136 8.241374154912041 0.0345855129460233 0 0 0
105 1 5.36777301220762 10.947275100782496 0.006501675700270937 0 0 0
137 1 27.119402682950177 10.918741707330714 0.0395250819975459 0 0 0
436 1 2.753964038192852 2.687685509392176 16.323424210280912 0 0 0
437 1 1.4005646570959407 1.339100804092433 17.681089478504678 0 0 0
442 1 5.4901128635978305 2.6398576325594822 19.001659755640123 0 0 0
445 1 6.83276179056518 1.319327980808489 17.577420803863184 0 0 0
1627 1 29.798447650967546 16.283587275119835 29.85446891673472 0 0 0