LAMMPS data file via write_data, version 19 Nov 2024, timestep = 60100, units = metal

1728 atoms
1 atom types

-0.01831443955157397 32.598314439552354 xlo xhi
-0.01831443955157397 32.598314439552354 ylo yhi
-0.01831443955157397 32.598314439552354 zlo zhi

Atom Type Labels

1 Si

Masses

1 28.0855

Atoms # atomic

2 1 32.53174234128713 2.705106917724431 2.607535306593522 -1 0 0
3 1 2.6932989610659317 -0.01791352267824102 2.6380066677539236 0 0 0
1187 1 24.45702360618568 16.248406979946687 13.552903357619046 0 0 0
5 1 1.2915273279245485 1.3196610725731313 1.3339167912071745 0 0 0
10 1 5.438844207038614 2.728844231511911 2.7390329647120506 0 0 0
11 1 8.097621053032352 -0.0019789349924011646 2.693267891373251 0 0 0
13 1 6.710288132934055 1.250628962987521 1.3534107536879072 0 0 0
18 1 10.866940652094897 2.583215321152747 2.6643605888742457 0 0 0
20 1 13.573436996340684 2.5883815558091605 -0.006208170444217993 0 0 0
21 1 12.204394902219768 1.2418366541350896 1.3288531040272862 0 0 0
1179 1 19.000149490110275 16.26506814008962 13.666008882889304 0 0 0
26 1 16.29890908675623 2.6078580185669735 2.80580259296853 0 0 0
29 1 17.716682989682713 1.3350812940361472 1.3853120339380403 0 0 0
34 1 21.673820284256387 2.74341636025535 2.7845294674592598 0 0 0
37 1 23.109703758336547 1.3771167222089464 1.439699667483677 0 0 0
36 1 24.37451949780753 2.6975951002454246 0.032409512786702885 0 0 0
42 1 27.0969289918896 2.6912160546524406 2.78239321474217 0 0 0
45 1 28.50731540434081 1.3788587809382487 1.402454041272291 0 0 0
44 1 29.7842759448775 2.7453321244992357 -0.004520542697798418 0 0 0
51 1 2.7165250981504 5.350350832398313 2.7632460127527727 0 0 0
8 1 4.0759735514127895 4.005923590181191 1.3363173742808738 0 0 0
59 1 8.236604827890263 5.3981303995561545 2.66575645127675 0 0 0
16 1 9.585917562701468 3.969073551594145 1.2624284060684023 0 0 0
65 1 10.940379757077835 5.365554773496559 -0.008613526732565319 0 0 0
67 1 13.588815131400798 5.3558396364426395 2.636335782140815 0 0 0
24 1 14.937805639700892 4.004006514314174 1.3100551435673478 0 0 0
32 1 20.29619038421193 4.055981159179009 1.4359105716966438 0 0 0
75 1 18.97239361735883 5.49047814639022 2.742569439475697 0 0 0
81 1 21.658396733457533 5.404511172612063 -0.005001416418781419 0 0 0
40 1 25.772730215154642 4.08168570503887 1.3178429312878892 0 0 0
83 1 24.407217652808033 5.4512762526499365 2.61530204610364 0 0 0
48 1 31.191320947996427 4.079595262299706 1.3243342819641712 0 0 0
91 1 29.84914780236238 5.44650350998298 2.677224870688294 0 0 0
53 1 1.4736559160278304 6.711598828366288 1.3086914161436463 0 0 0
56 1 4.076087571665672 9.505827818116893 1.3546780301198889 0 0 0
58 1 5.51223070120212 8.15348613669267 2.758391966268902 0 0 0
61 1 6.85434273476311 6.736406030477307 1.3176651813987739 0 0 0
64 1 9.552067414178113 9.56097209320848 1.371419241062648 0 0 0
66 1 10.831187116712472 8.0998215615441 2.7004339742608625 0 0 0
69 1 12.248638848091362 6.748173432470181 1.34139846418695 0 0 0
72 1 14.889370980531197 9.550032976735151 1.2831908039668205 0 0 0
74 1 16.188294697056534 8.075005411313677 2.655886488532203 0 0 0
77 1 17.57973112895895 6.712428194077338 1.3196741570744144 0 0 0
76 1 18.882488720955013 8.126129460376484 -0.009310938234269806 0 0 0
80 1 20.290639829210107 9.440811795168761 1.3512698314516762 0 0 0
82 1 21.64542849339095 8.043639687950286 2.700655568832538 0 0 0
85 1 23.088096798778114 6.759775480358266 1.260022797134763 0 0 0
88 1 25.824910897430918 9.453517978913595 1.3038338909891587 0 0 0
90 1 27.19987575578133 8.140931218984383 2.6950579163487536 0 0 0
93 1 28.535701927935587 6.735936043331155 1.3702779675122319 0 0 0
50 1 32.58767342926938 8.141147001086718 2.5795859649451396 -1 0 0
321 1 21.70034886266565 -0.01626539140612948 10.838307812889646 0 0 0
96 1 31.215974213722276 9.451189710795276 1.163103703583433 0 0 0
99 1 2.6451416408897885 10.891701899139314 2.5734993882106827 0 0 0
101 1 1.2954893960847493 12.262668305464963 1.2184027524324033 0 0 0
1153 1 0.04680946305154018 16.21461012747333 10.805942999710284 0 0 0
107 1 8.127865564342327 10.780164223627155 2.72342567589213 0 0 0
109 1 6.718997053741276 12.174786627109091 1.3077501555793594 0 0 0
113 1 10.928430484139538 10.913562858573524 0.005484678328362756 0 0 0
115 1 13.646978344591028 10.886407408043237 2.7522922619095747 0 0 0
117 1 12.299470016562886 12.19360442552622 1.3138653285057473 0 0 0
187 1 29.83968339806321 0.012601655318931648 8.08079159693586 0 0 0
125 1 17.61640276309115 12.201835504082782 1.2942373064761914 0 0 0
123 1 18.911999595501626 10.788542323711383 2.6547359450347767 0 0 0
133 1 23.074261804950364 12.237053315805513 1.275954926168133 0 0 0
131 1 24.44895363087907 10.835328430970078 2.617529927265156 0 0 0
141 1 28.629173275973166 12.189512803931104 1.2705381657192527 0 0 0
179 1 24.498569334582886 0.05522482861487532 8.156302568251759 0 0 0
139 1 29.894874769302593 10.767259563038941 2.5720831399913098 0 0 0
1195 1 29.92532404351722 16.2557245455595 13.535771272619547 0 0 0
104 1 3.968941271628312 14.932790723094298 1.2748901472084537 0 0 0
106 1 5.364700173028954 13.601437342333021 2.5703950555377197 0 0 0
875 1 8.210332985294723 16.28114722352234 2.7266451003733465 0 0 0
108 1 8.033807311763324 13.580222275695537 -0.010180627193750923 0 0 0
112 1 9.521753832957197 14.854937474612141 1.3224020695737682 0 0 0
114 1 10.851718793615285 13.494654969994894 2.6980000026541533 0 0 0
883 1 13.541787773650777 16.160031300912145 2.6340033359247124 0 0 0
120 1 15.002363440622855 14.901907185800951 1.2803217981393031 0 0 0
122 1 16.342580754069125 13.59385373228499 2.7303096198277856 0 0 0
426 1 27.078639246635774 13.624284997310522 13.556288398220241 0 0 0
124 1 19.02830894007565 13.572595011274158 -0.006121377330020566 0 0 0
128 1 20.409526352166925 14.99191620872153 1.3290834062770154 0 0 0
130 1 21.804766550373273 13.648776017318173 2.642740113935712 0 0 0
132 1 24.56065166999637 13.611036895846869 0.06688644404548812 0 0 0
136 1 25.963257153643525 14.96798511230302 1.327720205807539 0 0 0
138 1 27.233876493764487 13.580317217865238 2.7093209385631973 0 0 0
98 1 32.591449291633445 13.528871228425224 2.7441799371125333 -1 0 0
1051 1 29.890169457527676 16.23084284817005 8.072671194324213 0 0 0
144 1 31.24722597402197 14.883545029611135 1.3758182832114578 0 0 0
148 1 2.6589924363915447 2.6985859999782154 5.385749630826889 0 0 0
7 1 4.068879481970563 1.415238608322777 4.046683458754174 0 0 0
156 1 8.13700625240014 2.733898952746064 5.360947149923438 0 0 0
15 1 9.476407537066933 1.2672454577893186 4.035139505302192 0 0 0
430 1 28.513093119541598 14.955346391148355 14.893533695930884 0 0 0
164 1 13.540876099256666 2.669144913472443 5.404229957264716 0 0 0
23 1 14.927643484478939 1.2878209202595499 4.169235000120379 0 0 0
418 1 21.720095538277764 13.503113872764569 13.548031596404888 0 0 0
31 1 20.314493845659506 1.3224244968308663 4.065159516254446 0 0 0
172 1 18.959020337668715 2.6561213754605335 5.492059273594481 0 0 0
39 1 25.813205631402475 1.27904759616159 4.127431426300772 0 0 0
180 1 24.468187482541623 2.7237435934435426 5.425178412604275 0 0 0
422 1 23.052275121525625 14.922571202066402 14.970419854550078 0 0 0
47 1 31.205764930459814 1.3884531203398296 4.110334871922493 0 0 0
188 1 29.805773429055744 2.6902799255282956 5.499732523551336 0 0 0
6 1 1.2357716417719184 3.9703958180501497 4.058675122561003 0 0 0
193 1 32.54373355110438 5.38230183544442 5.4301417604368805 -1 0 0
201 1 5.367787847472901 5.40869465962691 5.451776803575656 0 0 0
14 1 6.757011430508352 4.1071496462532915 4.0713427481987 0 0 0
209 1 10.970362964442083 5.399608766139205 5.407385555154273 0 0 0
22 1 12.236400426118115 3.9999048697000097 3.927990571587491 0 0 0
30 1 17.594834143985185 4.109313279266179 4.067067051610824 0 0 0
217 1 16.185626348211812 5.390904007466317 5.429650069922634 0 0 0
38 1 23.078868589925687 4.136420822276035 4.0448011756560005 0 0 0
225 1 21.698209412285458 5.418754780872281 5.382431857255594 0 0 0
46 1 28.507923271956134 4.045070170768621 4.100842902928505 0 0 0
233 1 27.1048727401586 5.387131067402954 5.347943058695395 0 0 0
54 1 1.2867481819609696 9.560706201258435 4.055906272859871 0 0 0
196 1 2.6076969882566434 8.156768164547632 5.4034153870960715 0 0 0
55 1 4.036225933512785 6.823426805408751 4.113934611718422 0 0 0
62 1 6.836760719252778 9.49723612131871 4.097794665756118 0 0 0
204 1 8.16163615221306 8.158994270736972 5.48986383872477 0 0 0
63 1 9.56547777492224 6.757243232361807 4.100168614740717 0 0 0
70 1 12.24611958255929 9.488108001063562 4.079691682911547 0 0 0
212 1 13.660414289712 8.142529352891522 5.348802635094767 0 0 0
71 1 14.904749436759655 6.693983962961577 4.03412277133264 0 0 0
78 1 17.562842281391827 9.460179896924553 3.9943223657835345 0 0 0
79 1 20.304515982150193 6.7685662593191 4.017000453100461 0 0 0
220 1 18.923451637911832 8.160687611569003 5.334452211072922 0 0 0
86 1 23.06056856788496 9.46044714991156 4.0169971550178385 0 0 0
87 1 25.830858483697593 6.789859915311091 3.9806287058675642 0 0 0
228 1 24.496308390641254 8.211198584469015 5.398233073582735 0 0 0
94 1 28.5853228749073 9.513209798267415 4.0228650857101655 0 0 0
95 1 31.160865540058737 6.787188635457454 4.047496525224573 0 0 0
236 1 29.83350265780311 8.094436084599241 5.453850166798696 0 0 0
103 1 3.9800933650112804 12.278302850819404 3.942357752080173 0 0 0
249 1 5.3751347249209 10.880836548233253 5.274258582888241 0 0 0
111 1 9.467753274323906 12.205724461741106 4.0428351395802276 0 0 0
257 1 10.856485058582951 10.863541483647913 5.356968918905836 0 0 0
119 1 14.969590408590554 12.24574347556768 4.087045607897118 0 0 0
265 1 16.30151637559606 10.85645627616455 5.3909029452754345 0 0 0
127 1 20.392595731195275 12.251580180712072 3.8649103777475027 0 0 0
273 1 21.699225002452444 10.875387549424667 5.324361468935914 0 0 0
135 1 25.834470361346636 12.17418974374113 4.042733833961629 0 0 0
281 1 27.220749085562932 10.844428009902904 5.490784454924296 0 0 0
241 1 -0.00715789028125613 10.884017173295907 5.471487330936486 0 0 0
143 1 31.19749697853639 12.20988978658736 4.053671611583637 0 0 0
102 1 1.3873361491067893 14.84671307185358 4.053214854023575 0 0 0
244 1 2.671017831898009 13.525047670641182 5.452517037208312 0 0 0
110 1 6.774379532437524 14.867892939152604 3.9903323701271924 0 0 0
252 1 8.133469089502821 13.514418924397816 5.40671646338405 0 0 0
556 1 19.022014893542643 13.510194766744357 16.24704024125296 0 0 0
118 1 12.184695109151956 14.870773520563237 4.158771435458175 0 0 0
260 1 13.559343817450356 13.562751951489513 5.450729510116841 0 0 0
410 1 16.374355109562885 13.567462777727192 13.512156575793842 0 0 0
126 1 17.73364258858501 14.961266854350667 4.033309342976313 0 0 0
268 1 19.000325198931407 13.527371814820818 5.288514690731193 0 0 0
134 1 23.08112695986176 14.861754493881667 4.094298232989954 0 0 0
276 1 24.472597130406143 13.48065300407327 5.434893479633532 0 0 0
142 1 28.533300662113724 14.934778002048398 4.040628521165112 0 0 0
284 1 29.802966001712626 13.51121555880909 5.372051454075363 0 0 0
414 1 17.658051013286315 14.9105723457221 14.90334008336474 0 0 0
149 1 1.3226448609216677 1.3741129617145422 6.673332377046901 0 0 0
151 1 3.9141349799235075 1.3035202080592652 9.511698325213018 0 0 0
154 1 5.358236084179492 2.672312029575738 8.221553149326782 0 0 0
157 1 6.753122719359132 1.3849763792870478 6.750331379344782 0 0 0
159 1 9.478314631641403 1.331523826298622 9.46432960907619 0 0 0
162 1 10.874592375002107 2.677140010818049 8.175291694294161 0 0 0
406 1 12.196662381808682 14.940605087355864 14.830743092773252 0 0 0
165 1 12.21964475997841 1.3112170078990737 6.796030915592996 0 0 0
167 1 14.897959806687325 1.4156262506269142 9.490096332510022 0 0 0
170 1 16.312262778811455 2.649071899494696 8.062109297285431 0 0 0
173 1 17.657668638984376 1.2516676924021117 6.8489880201260975 0 0 0
1171 1 13.62396940444883 16.246964136773254 13.579851107231331 0 0 0
175 1 20.384711176664688 1.3916747805860619 9.488943801299307 0 0 0
178 1 21.747416667340065 2.794724559147396 8.211466792219188 0 0 0
181 1 23.071359023046227 1.3880654947190771 6.831247975388976 0 0 0
183 1 25.814716588463437 1.3630419329276477 9.554411325274003 0 0 0
186 1 27.211892079761952 2.6944999276460377 8.137153144304541 0 0 0
189 1 28.54825950275698 1.3427840660446762 6.80359621825559 0 0 0
146 1 32.538663101253476 2.633096929819864 8.115670999486994 -1 0 0
191 1 31.226407055752773 1.2531806320725767 9.493982774205552 0 0 0
150 1 1.2027721249880754 3.950509889944899 9.526887559059109 0 0 0
195 1 2.573202711999579 5.381855282838976 8.138929905940591 0 0 0
152 1 4.018249059521978 4.0296606441826555 6.771320648364583 0 0 0
158 1 6.825923932614423 3.9813631616429492 9.594538478403335 0 0 0
203 1 8.067863319313703 5.395315896706713 8.152877185222074 0 0 0
160 1 9.552181348344904 4.066980058101952 6.755753960571692 0 0 0
166 1 12.264935250515483 4.063834852875311 9.576693444147997 0 0 0
211 1 13.643697250834974 5.345303976311929 8.22403801149375 0 0 0
168 1 14.897052940965942 3.957973529462638 6.808829519224817 0 0 0
174 1 17.632956306100947 4.030901464214553 9.486820736772948 0 0 0
176 1 20.372140670385324 4.028426964706499 6.762661795771032 0 0 0
219 1 18.997970511168305 5.367162794028581 8.108296801406881 0 0 0
182 1 23.124079748365286 4.089963074275743 9.523678753095625 0 0 0
184 1 25.902304719476767 4.0586868735317845 6.849229223909238 0 0 0
227 1 24.4866141592925 5.43761864663887 8.13413484915939 0 0 0
190 1 28.47670420615323 4.017567888209689 9.543915464083659 0 0 0
192 1 31.201691673345497 4.065898867638624 6.8260771703575225 0 0 0
235 1 29.855752221775173 5.37062031625155 8.24100038595918 0 0 0
194 1 32.510541943192486 8.067911483422307 8.208131146427256 -1 0 0
197 1 1.2361717712259082 6.753819523833404 6.795915966119627 0 0 0
198 1 1.2789368607159768 9.424348431170616 9.580427427432202 0 0 0
199 1 3.9773023205238514 6.688380780895535 9.52000126124129 0 0 0
200 1 4.01920837146455 9.514984872781035 6.754794541910338 0 0 0
202 1 5.3289168910209055 8.108594052569162 8.166632816993738 0 0 0
205 1 6.767766254582627 6.826729347645946 6.807842545747405 0 0 0
206 1 6.706282739742877 9.411835095724328 9.534127084889844 0 0 0
207 1 9.437042689449584 6.760996936176948 9.541823755867068 0 0 0
208 1 9.575508317173545 9.511462480177013 6.834491141446209 0 0 0
210 1 10.884029792342202 8.07973771034163 8.155173339875178 0 0 0
213 1 12.352898274964232 6.7872420954196535 6.8193506501784125 0 0 0
214 1 12.19947789981953 9.526395868502568 9.511833150410398 0 0 0
215 1 14.954375057320132 6.704511450056446 9.57194121081257 0 0 0
216 1 14.936092890151457 9.522713679958505 6.783052436933665 0 0 0
218 1 16.247233560389553 8.11568098251683 8.124968989575505 0 0 0
221 1 17.60503391200548 6.746160881805679 6.69963004711999 0 0 0
222 1 17.580700432063626 9.524384285078053 9.494228043879183 0 0 0
223 1 20.305089823675093 6.735570831317795 9.456930673791176 0 0 0
224 1 20.297749169447496 9.513659556138057 6.651094808990442 0 0 0
226 1 21.621126656849878 8.186771484275017 8.107961464812808 0 0 0
229 1 23.026418702860205 6.798718926567856 6.820827588329103 0 0 0
230 1 23.05214402372699 9.49531064507232 9.488456871212424 0 0 0
231 1 25.766200273724753 6.810556008017081 9.551028776280482 0 0 0
232 1 25.880339552256505 9.472745827225884 6.812416456268712 0 0 0
234 1 27.18152930001498 8.142514613483037 8.23567025439002 0 0 0
237 1 28.477996170048794 6.725330162825245 6.817921012594284 0 0 0
238 1 28.533269796120056 9.523654290355456 9.497000993034723 0 0 0
239 1 31.173298993083215 6.83707145080749 9.608974320802668 0 0 0
240 1 31.2031052382267 9.44065532228766 6.82202404130259 0 0 0
243 1 2.606234905657603 10.810025639968375 8.112252842786292 0 0 0
245 1 1.278642057847453 12.216642379164766 6.812957779534333 0 0 0
247 1 4.006580913873118 12.207466620949882 9.398696461220345 0 0 0
251 1 8.151246863761584 10.814640001794068 8.204357685453942 0 0 0
253 1 6.802356094983266 12.160916004726557 6.71972655764813 0 0 0
255 1 9.439053070071235 12.242483789077921 9.539791457000735 0 0 0
259 1 13.627389999519108 10.843150409933024 8.187020734379328 0 0 0
261 1 12.208136500459885 12.223250979260731 6.887348301640727 0 0 0
263 1 14.9127281625001 12.220480005538041 9.519199231230454 0 0 0
269 1 17.635673995642883 12.155212730099857 6.6889188826575925 0 0 0
267 1 18.902389444741285 10.830971225725268 8.011022647599102 0 0 0
271 1 20.305027108992444 12.050783479330157 9.431496175881435 0 0 0
277 1 23.101465839530768 12.112640819697843 6.785494279443035 0 0 0
275 1 24.48456786903342 10.80614239382171 8.087584458130925 0 0 0
279 1 25.810314916650682 12.289051704228045 9.437295472215576 0 0 0
285 1 28.569902560959502 12.256986440410865 6.812850807007654 0 0 0
283 1 29.898059076997786 10.865082008555614 8.142537777177752 0 0 0
287 1 31.27786314419005 12.235332536206453 9.509857004887614 0 0 0
1011 1 2.7473081876501637 16.263396752695648 8.176838993984315 0 0 0
242 1 32.59590625271856 13.625235840402517 8.153929580213658 -1 0 0
246 1 1.3815696504202755 14.931348195120924 9.478172345042337 0 0 0
248 1 4.063505467393301 14.872430166488176 6.768125695662411 0 0 0
250 1 5.442327021626011 13.525459698507078 8.078284387008585 0 0 0
1019 1 8.104682651231986 16.255633528505598 8.12640583185083 0 0 0
254 1 6.726389450977033 14.99365981401403 9.49446015583216 0 0 0
256 1 9.434720238025346 14.918731984691975 6.799057171062656 0 0 0
258 1 10.782322132667517 13.675049104144582 8.222550102356292 0 0 0
262 1 12.315185359802465 14.876209910765281 9.497022968659142 0 0 0
264 1 14.928916900812673 14.9319649282224 6.684134406283453 0 0 0
266 1 16.258569856104184 13.60710263095745 8.064925299284306 0 0 0
270 1 17.623556218780333 14.877652860912738 9.515446609027421 0 0 0
272 1 20.33511693645037 14.804140413486648 6.709715473351773 0 0 0
274 1 21.63404732482525 13.461024989045532 8.12677145421145 0 0 0
278 1 22.948804888163977 14.967447736540294 9.497529940195504 0 0 0
280 1 25.785966874356696 14.940497674920787 6.752448441704347 0 0 0
282 1 27.191997169032245 13.656864122435172 8.136366707729536 0 0 0
286 1 28.602932445702507 14.899324237166086 9.543622842565284 0 0 0
288 1 31.198227770689122 14.855052613143416 6.658179995121767 0 0 0
292 1 2.6937922566684973 2.6745746128538688 10.891965948958163 0 0 0
293 1 1.2571375261116406 1.374506699164284 12.18007542883699 0 0 0
300 1 8.11556166818145 2.6658450942892924 10.946396218526788 0 0 0
301 1 6.798160176644671 1.2792467333527517 12.26698974845775 0 0 0
402 1 10.794296394105467 13.4872727368161 13.577867144469634 0 0 0
308 1 13.584109354237416 2.7183679601671056 10.984967940764525 0 0 0
309 1 12.234190385201053 1.2446179774543225 12.229203865569765 0 0 0
313 1 16.179612148909335 -0.013176464540814193 10.84146797623186 0 0 0
317 1 17.6196623834073 1.3979594435329206 12.20021184063149 0 0 0
316 1 19.027775693844024 2.6925797204123 10.79098291084276 0 0 0
325 1 23.081750478858023 1.3333402119882625 12.220711312160851 0 0 0
324 1 24.4688602308971 2.6866454244862648 10.933744165575124 0 0 0
333 1 28.498854186979557 1.424495753556126 12.174016756488875 0 0 0
332 1 29.914410448020462 2.6489709715384766 10.851782291488773 0 0 0
337 1 32.542320627006276 5.42058443744009 10.852496932031796 -1 0 0
296 1 3.9470458109064026 4.010647514190718 12.21478568730577 0 0 0
345 1 5.363406117775191 5.396130675762835 10.879257864756447 0 0 0
304 1 9.478320995241845 3.990417221346544 12.230008644258582 0 0 0
353 1 10.907368349630213 5.444463032143755 10.946717925463732 0 0 0
312 1 15.046379218965555 4.161446271678052 12.265252188704848 0 0 0
361 1 16.424795105788753 5.378571497540356 10.807413480722397 0 0 0
320 1 20.43994876097735 4.0540666487795916 12.23103596545115 0 0 0
369 1 21.738621226607503 5.401146223669494 10.86936501407159 0 0 0
328 1 25.796321825789864 4.075833201768096 12.257435169768113 0 0 0
377 1 27.136752584949594 5.422600829215587 10.882648452745096 0 0 0
336 1 31.219041686796206 4.1085309278513575 12.293795536553414 0 0 0
340 1 2.6822503524979306 8.145513856313983 10.909492359074454 0 0 0
341 1 1.2912622225048247 6.782115356325043 12.29671122260885 0 0 0
344 1 4.09471859516861 9.477249324719214 12.225780491652305 0 0 0
348 1 8.10507646298337 8.126355690139013 10.890743241274116 0 0 0
349 1 6.853049942354906 6.785616344375389 12.2097018202059 0 0 0
352 1 9.458121001736753 9.530795181820519 12.282559246988193 0 0 0
356 1 13.576582394544882 8.207032988438067 10.908890907239565 0 0 0
357 1 12.220206065324492 6.868346278759397 12.282104105907917 0 0 0
360 1 14.93343402180776 9.5870847523442 12.2498172572772 0 0 0
365 1 17.689925325753673 6.815647129163305 12.150028201499156 0 0 0
364 1 18.94604631477586 8.13666289269552 10.792423599822266 0 0 0
368 1 20.334037915203545 9.439384101338002 12.190422577293406 0 0 0
373 1 23.12065735840587 6.752437458227925 12.206301081915262 0 0 0
372 1 24.428342625759218 8.175483383650711 10.851572640480144 0 0 0
376 1 25.811611234031687 9.505508021832503 12.178890525072383 0 0 0
381 1 28.45688428715592 6.875371957163308 12.248884839684859 0 0 0
380 1 29.847664421840786 8.221364009728607 10.86902676108399 0 0 0
384 1 31.231153590290766 9.526830982912085 12.331146151014906 0 0 0
389 1 1.424921513265955 12.204211536085795 12.170434920168702 0 0 0
393 1 5.411177241344176 10.911929438017333 10.85504806601034 0 0 0
397 1 6.785911632757227 12.209003206844201 12.152137112785386 0 0 0
401 1 10.803492686014978 10.901650536781402 10.85333383710463 0 0 0
405 1 12.203993250955248 12.209984704192843 12.199969056601033 0 0 0
409 1 16.25477980776889 10.891894651831516 10.864984791206574 0 0 0
413 1 17.671370652337306 12.104771653567346 12.170387478533346 0 0 0
417 1 21.688581790005326 10.737035226431509 10.867862973912342 0 0 0
421 1 23.031741603078352 12.186358541184896 12.112439486972994 0 0 0
425 1 27.142095908973076 10.93611419629733 10.84114434604422 0 0 0
429 1 28.452802838030603 12.29140278769004 12.314609834806898 0 0 0
385 1 32.591806958525325 10.871653893211615 10.84177976852549 -1 0 0
388 1 2.750067172757357 13.654053329045306 10.790505437140684 0 0 0
540 1 8.136153540041803 13.58324117730829 16.20250986884364 0 0 0
392 1 4.084895936090853 14.993025706867973 12.217639947483597 0 0 0
396 1 8.059913023500762 13.626441018574486 10.871529837245424 0 0 0
1169 1 10.895301094780029 16.256802006537818 10.863732971607988 0 0 0
400 1 9.469437462940679 14.917878071485083 12.27019254731519 0 0 0
404 1 13.626200397336769 13.51961169697068 10.949913721635882 0 0 0
408 1 14.94793319969216 14.943394538759968 12.225422160607621 0 0 0
412 1 19.041969142360923 13.496117106114655 10.87586638686989 0 0 0
416 1 20.342454148013545 14.857019892805114 12.297860755267132 0 0 0
420 1 24.394130096048098 13.640848280628715 10.814018020729439 0 0 0
424 1 25.7680327420563 14.92284203952783 12.177948549395765 0 0 0
1193 1 27.191779550177085 16.213061097292723 10.834403138111252 0 0 0
428 1 29.922754988938316 13.572579907904897 10.979228642918338 0 0 0
432 1 31.329273636572346 14.891496267512485 12.147862380919339 0 0 0
291 1 2.656494422103398 -0.016131523159304096 13.489461710255812 0 0 0
398 1 6.767277715692771 14.883452157415247 14.848032458677439 0 0 0
1035 1 18.977090782695203 16.256681991671826 8.125576564566105 0 0 0
295 1 4.043952123805222 1.3726837474526854 14.919253588990555 0 0 0
298 1 5.395085066850601 2.7178654841177377 13.519077154419545 0 0 0
1027 1 13.596771285045365 16.279815702055103 8.130333203659049 0 0 0
1163 1 8.175096102641726 16.279700069686104 13.5780534624552 0 0 0
444 1 8.129388981063794 2.755206147553766 16.261981736273082 0 0 0
303 1 9.547233754782791 1.3175135335969161 15.00887651714587 0 0 0
306 1 10.907284114140742 2.596295972943072 13.564180694428066 0 0 0
394 1 5.442634995378952 13.540501726601729 13.511137904771228 0 0 0
532 1 2.7099858194426023 13.614502763152839 16.24462839963244 0 0 0
311 1 14.875400602289758 1.4745589891816393 14.983672834194433 0 0 0
314 1 16.309063820611907 2.737648409814267 13.610289125196086 0 0 0
145 1 -0.018130169451055167 0.0030311061414636242 5.442889944600356 0 0 0
315 1 18.91670988192598 0.01756315587447151 13.620420811098466 0 0 0
319 1 20.42990989033364 1.3078015647866754 14.942572818662851 0 0 0
460 1 19.050776936055296 2.6458057140829583 16.215042053006407 0 0 0
322 1 21.797584799246163 2.66690237053672 13.57124778602091 0 0 0
386 1 0.02714708580493152 13.568010989895004 13.540348095587177 0 0 0
327 1 25.870396425900747 1.2880214287640452 14.934153922630326 0 0 0
177 1 21.65707472420326 -0.016893839134631605 5.493429927419888 0 0 0
330 1 27.172489661925184 2.669075826828201 13.57359640514624 0 0 0
290 1 -0.006102812440637706 2.673096640601686 13.549428326183289 0 0 0
335 1 31.239298658126156 1.3457841886769448 14.876302282838909 0 0 0
476 1 29.793696336473396 2.6618498126440313 16.247815207375194 0 0 0
294 1 1.267003599324459 4.063326531569446 14.95514883121038 0 0 0
339 1 2.660837976845377 5.355218875371013 13.64608698324639 0 0 0
302 1 6.747282853172268 4.019183232704807 14.9159133352568 0 0 0
347 1 8.115883401724137 5.3811457167994154 13.582047811919507 0 0 0
497 1 10.778135243938916 5.449000886263193 16.281533635034425 0 0 0
310 1 12.12912048388697 4.119753917589337 14.88116205888622 0 0 0
355 1 13.612645533774659 5.509610165391709 13.640569439796048 0 0 0
318 1 17.716178788458922 4.104231904221278 14.873901046371694 0 0 0
505 1 16.338902418866308 5.4356411485375995 16.25372560206442 0 0 0
363 1 19.09431204588784 5.41277365484691 13.516962451095964 0 0 0
326 1 23.120399048084487 3.977715608088099 14.962883038834528 0 0 0
371 1 24.356929809873346 5.3993865642365435 13.616017715866132 0 0 0
334 1 28.464707127074174 4.037890307285186 14.92121911907087 0 0 0
379 1 29.803232669685176 5.472331950618366 13.58426382379845 0 0 0
342 1 1.4331367487173143 9.457125931716286 15.00099747719739 0 0 0
343 1 4.060787661426208 6.772942512605306 14.927557268361518 0 0 0
346 1 5.396426623503143 8.090683869507775 13.542136102980574 0 0 0
350 1 6.786579954414898 9.42987571514263 14.95891577500627 0 0 0
153 1 5.43235121466334 0.031098485695501665 5.412936983755824 0 0 0
351 1 9.442484854254475 6.818966015376595 14.909940073458618 0 0 0
354 1 10.845261976840224 8.221952628618597 13.624385970609586 0 0 0
358 1 12.218122049805608 9.551301757668293 14.984738621932024 0 0 0
1009 1 0.01757526151238409 16.277003174747698 5.388662446793145 0 0 0
359 1 14.979060023335311 6.883892702237821 14.952921121142323 0 0 0
362 1 16.36682869276117 8.16621774377141 13.549893571845569 0 0 0
366 1 17.655730123688134 9.464150238354138 14.95040989363835 0 0 0
367 1 20.388424401582157 6.761939120344282 14.91633894809102 0 0 0
508 1 19.009145520317563 8.12582055637302 16.256962256053985 0 0 0
370 1 21.71483551374638 8.13158395225992 13.565172347852481 0 0 0
374 1 23.063162526698626 9.476963975537062 14.94334642825643 0 0 0
375 1 25.811397342150737 6.767955360518183 14.935857240638851 0 0 0
1049 1 27.154446033027707 16.26755136655494 5.367770057124294 0 0 0
378 1 27.141081925405548 8.26013732335467 13.637398799454637 0 0 0
382 1 28.52636788973717 9.517201621129228 15.024049756153982 0 0 0
338 1 32.51938430323892 8.143367074436139 13.66233787605163 -1 0 0
383 1 31.174072793161958 6.812933881414164 14.992938366213924 0 0 0
387 1 2.750954882013918 10.811847662702236 13.605803468569936 0 0 0
391 1 4.048704888905859 12.220449533455563 14.887531437721393 0 0 0
537 1 5.459876780671143 10.896549936114068 16.25560490421546 0 0 0
395 1 8.090452274417927 10.8076638003124 13.534274992641473 0 0 0
399 1 9.382898662280422 12.26506432111413 14.88181693917787 0 0 0
403 1 13.593819141549881 10.896354352670096 13.668999018555844 0 0 0
407 1 15.0499502891995 12.242138463599996 14.96468323258556 0 0 0
553 1 16.351296482021393 10.879425117140379 16.28483046063772 0 0 0
411 1 19.01172272970942 10.757694750604891 13.599066586400719 0 0 0
415 1 20.31969236659121 12.172162344708536 14.913066266522074 0 0 0
423 1 25.747631754637858 12.285981509514986 14.966668902897108 0 0 0
419 1 24.395760907030766 10.887751793259831 13.597891075028986 0 0 0
1041 1 21.73287569438683 16.21661826321886 5.389982391121326 0 0 0
431 1 31.29485993537936 12.300073676778275 14.939496210845364 0 0 0
427 1 29.87979600127058 10.928787743129995 13.666001463063658 0 0 0
1017 1 5.456692004782685 16.28161407399043 5.421026352483431 0 0 0
1155 1 2.6959598703996575 16.254701823881156 13.578150388834343 0 0 0
390 1 1.3483484622297726 14.979673667048592 14.91991443531515 0 0 0
899 1 24.48344753248714 16.20540277214994 2.6647359607277865 0 0 0
331 1 29.780122172066225 0.04928830123790817 13.579319775594625 0 0 0
865 1 32.5457180580715 16.2742547282224 0.04142075547476272 -1 0 0
27 1 18.914947988989258 0.006319291260794557 2.843823680884537 0 0 0
489 1 5.45531852594031 5.436972585189769 16.287930739380435 0 0 0
513 1 21.82942036158708 5.442025447289378 16.2830944192934 0 0 0
521 1 27.163368601345542 5.418292447822604 16.273861635889546 0 0 0
545 1 10.853692372335564 10.904098220961385 16.204415949969995 0 0 0
561 1 21.703611872307654 10.849403168145814 16.25018336707353 0 0 0
1305 1 5.403962270950312 16.272319179821167 16.11776503270737 0 0 0
1313 1 10.792347936170797 16.21974403982567 16.253037858654853 0 0 0
548 1 13.59341986459026 13.566903297083217 16.194500364003694 0 0 0
12 1 8.102996657546425 2.601770005656194 0.017226779163621586 0 0 0
28 1 19.065166429898774 2.672649908710334 -0.014948892529453417 0 0 0
33 1 21.808898428841687 0.024802664217907278 0.07192722011663477 0 0 0
41 1 27.172307857255895 -0.013759388806925397 0.0592210760080647 0 0 0
49 1 0.05721750829731042 5.383172663871165 -0.0034704506862297535 0 0 0
57 1 5.460584342896805 5.346964425691697 0.0039850072658822455 0 0 0
52 1 2.781195930583399 8.155322964880408 0.002623660347268242 0 0 0
68 1 13.465053320546975 8.174267378050875 0.0006883329853764053 0 0 0
129 1 21.685056319973093 10.788176483099779 -0.011701726819687508 0 0 0
434 1 32.57833461838739 2.657111799343412 18.921627317476222 -1 0 0