LAMMPS data file via write_data, version 19 Nov 2024, timestep = 60100, units = metal

1728 atoms
1 atom types

-0.017615939315046347 32.59761593931495 xlo xhi
-0.017615939315046347 32.59761593931495 ylo yhi
-0.017615939315046347 32.59761593931495 zlo zhi

Atom Type Labels

1 Si

Masses

1 28.0855

Atoms # atomic

3 1 2.6570766632407556 0.08263245759439063 2.7772840450061445 0 0 0
5 1 1.3247238726184616 1.3078735396019667 1.2746898794945924 0 0 0
9 1 5.348271770972474 -0.007216305878054375 0.028402186362010175 0 0 0
10 1 5.580456605320234 2.7078450466455215 2.7160568914733334 0 0 0
299 1 8.208749083437958 -0.01179490557833418 13.639861972053739 0 0 0
13 1 6.801844541643885 1.4056624859533748 1.245911220271151 0 0 0
18 1 11.008241386573104 2.6116417567683223 2.5638298645284476 0 0 0
291 1 2.6754311239677078 -0.01488073227228881 13.633836562920342 0 0 0
21 1 12.192092872306096 1.2360776904655328 1.1912880655125162 0 0 0
26 1 16.261825297315685 2.602454027096312 2.7624918008720756 0 0 0
29 1 17.62661392527607 1.227293106616773 1.3472039217798053 0 0 0
386 1 0.048485305546982715 13.605613698081426 13.608252377117712 0 0 0
1195 1 29.80273179277913 16.265076083826237 13.601445060391248 0 0 0
34 1 21.67803917925947 2.7877191289361454 2.8446588278182037 0 0 0
37 1 23.098292070341255 1.4594486372399642 1.4324175026225001 0 0 0
36 1 24.456012503298766 2.88423595177057 0.09006451841409248 0 0 0
42 1 27.08966170698981 2.706149981181101 2.6824340684115526 0 0 0
45 1 28.573219563714268 1.3214761259125463 1.388090951168784 0 0 0
2 1 32.41199192818981 2.6817388114706135 2.5833318715781166 -1 0 0
51 1 2.783543939900223 5.402347553311951 2.682670054386065 0 0 0
8 1 4.191106168429044 4.039179133942406 1.3480289322012533 0 0 0
57 1 5.5711195233655975 5.467427921906551 0.1476143330534507 0 0 0
59 1 8.271109987349734 5.465530465609406 2.647480266864799 0 0 0
16 1 9.67489318205121 4.029077020857885 1.3190683091071829 0 0 0
1187 1 24.45405708908005 16.270609310450226 13.596723065521877 0 0 0
67 1 13.634928104656348 5.352652248580906 2.714579301929769 0 0 0
24 1 14.980438960029778 3.898427219157011 1.2980797817944025 0 0 0
32 1 20.38091338730325 4.101720798713244 1.440426234194726 0 0 0
75 1 18.88389156264575 5.46620257591163 2.6769508289144794 0 0 0
81 1 21.635311151192887 5.377339904724489 0.02098554764838476 0 0 0
40 1 25.764580470878016 4.242723719176655 1.3563991073237174 0 0 0
83 1 24.375462427203107 5.554631251038599 2.712074064526866 0 0 0
89 1 27.204342352032047 5.496641165750875 -0.011508358712246293 0 0 0
48 1 31.169585676184298 4.047479109662379 1.279904530928387 0 0 0
91 1 29.9148446121114 5.343866694590426 2.6465450275874414 0 0 0
329 1 27.303216521852576 0.004434017540738466 10.734989590602769 0 0 0
53 1 1.3910582711101618 6.686600023598948 1.229708432989672 0 0 0
56 1 4.073379000660223 9.481393963731023 1.2989298753837624 0 0 0
58 1 5.3782218046254995 8.237103306977223 2.8120143528578474 0 0 0
60 1 8.267791313765724 8.234153543444645 0.12327629644823337 0 0 0
61 1 6.873592255724456 6.938239257326213 1.5222828174949992 0 0 0
64 1 9.601953087685724 9.605647551084834 1.500238555887537 0 0 0
66 1 10.93065741209237 8.09037205928251 2.8195902241785338 0 0 0
69 1 12.300294929925625 6.794630252888038 1.2689089162016507 0 0 0
72 1 14.946266793928954 9.505949176384542 1.3201245709399119 0 0 0
74 1 16.2918879607671 8.120644257186365 2.6786401614917494 0 0 0
77 1 17.51362428500009 6.810248700852318 1.2801901606613917 0 0 0
80 1 20.353939031268304 9.623194294510029 1.3719785194583363 0 0 0
82 1 21.689178560505972 8.207027637590523 2.742788248477858 0 0 0
85 1 22.976202263699797 6.835222844566022 1.2739660389686769 0 0 0
88 1 25.779680969151446 9.432055780827563 1.5010443508992046 0 0 0
90 1 27.276895927707397 8.129090507744529 2.801709629684244 0 0 0
93 1 28.632416259597647 6.780136957209877 1.2938476338571028 0 0 0
50 1 0.07689788212279325 7.998987912334094 2.6138213246991473 0 0 0
92 1 29.95743238244356 8.204024202657239 -0.005897815801552839 0 0 0
96 1 31.284220545387196 9.450040158509587 1.3923806460902632 0 0 0
99 1 2.5222426614615134 10.790289490078152 2.689628411695314 0 0 0
101 1 1.2492042193273087 12.243536280218963 1.2786135697603762 0 0 0
105 1 5.362411909507778 10.955708734064258 0.020020890854325027 0 0 0
107 1 8.30852866324193 10.94587198171915 2.8404065108722394 0 0 0
109 1 6.7829487072904815 12.202803586825409 1.4953125865412564 0 0 0
115 1 13.524762851302322 10.801870553635112 2.6313522834000156 0 0 0
117 1 12.17753169533325 12.13451106214687 1.3189468220962528 0 0 0
121 1 16.286016963867368 10.925226286851608 0.05857800365208091 0 0 0
125 1 17.5929179718777 12.363122433912892 1.3242715057496686 0 0 0
123 1 18.965933621715383 11.071533982442896 2.719251161279629 0 0 0
133 1 23.158981909730926 12.292039470313178 1.378083311843411 0 0 0
131 1 24.484176111801037 10.951215852880233 2.781267499617024 0 0 0
289 1 0.038913772758210764 0.048339950610440496 10.787845538722804 0 0 0
141 1 28.55636969857595 12.198551299367683 1.4214144010881793 0 0 0
139 1 29.95787994447033 10.823475833310097 2.720004307370566 0 0 0
169 1 16.367280630157396 0.03196344086364178 5.445636101064032 0 0 0
426 1 27.151735008313974 13.552455320274404 13.662715229728517 0 0 0
104 1 4.02650053850054 14.981388239760015 1.3251750646201281 0 0 0
106 1 5.327883177174007 13.575165695440592 2.723648126782398 0 0 0
108 1 8.131536028327616 13.505990819193089 0.07248515262483801 0 0 0
875 1 8.14417907684075 16.261124797912736 2.801751449819854 0 0 0
112 1 9.44405564258201 14.872996124180318 1.4657015134647837 0 0 0
114 1 10.895776749332324 13.516031647417265 2.690311022243752 0 0 0
116 1 13.547311344860884 13.48075773752115 0.051519938726165816 0 0 0
120 1 14.89781998170747 14.860447658080014 1.3975775508455937 0 0 0
122 1 16.2101446055507 13.50180329871166 2.7578618693213293 0 0 0
161 1 10.990666940676407 0.07024479098137704 5.548096443822629 0 0 0
128 1 20.351507416428483 15.053665849354442 1.321426790719189 0 0 0
130 1 21.7139873063778 13.619648499524484 2.5912036856870904 0 0 0
136 1 25.882927796593226 14.949032661926871 1.3928443934988939 0 0 0
430 1 28.56237937586301 14.911883542922448 15.023932991157022 0 0 0
138 1 27.237243097067434 13.525500187005804 2.7831622318951736 0 0 0
98 1 -0.012969183824864672 13.542131009070559 2.631391123586266 0 0 0
144 1 31.139371817892243 14.9661457466972 1.3521810573098652 0 0 0
33 1 21.82429517097761 0.01660674063919032 -0.016450096563314642 0 0 0
148 1 2.7295409287359056 2.7169345570025967 5.407648874756287 0 0 0
7 1 4.12445029360954 1.4670621251357792 4.101667288289909 0 0 0
153 1 5.479346114068906 0.10119077915450084 5.391139409928201 0 0 0
156 1 8.29586281578905 2.626248112937721 5.411961662312639 0 0 0
15 1 9.686516717594728 1.357360396434344 4.049959193751319 0 0 0
164 1 13.604175751279849 2.658981477688036 5.410826179740147 0 0 0
23 1 14.906609761267351 1.2529616773023695 4.0851347815618 0 0 0
31 1 20.33650063822695 1.2530930993853402 4.157435744610637 0 0 0
172 1 18.981638648050275 2.681793016537104 5.49801731685474 0 0 0
418 1 21.70720318338887 13.547234079165511 13.666163144419443 0 0 0
39 1 25.76880971428622 1.287642936882675 4.033047076204902 0 0 0
180 1 24.563003839660684 2.783959874467551 5.442327320310257 0 0 0
185 1 27.2554377278565 -0.009222538182653381 5.442802479613919 0 0 0
47 1 31.156969881616856 1.3180367366934982 4.0638386440011045 0 0 0
188 1 29.83633100247083 2.6948911082159324 5.354129162909129 0 0 0
6 1 1.2934725794165034 4.054617278958852 3.9899549471395264 0 0 0
201 1 5.508839473227021 5.492013190270298 5.331007037684791 0 0 0
14 1 6.993590436522002 4.0776946567009515 4.056012152059153 0 0 0
209 1 10.936459849252055 5.349042128342299 5.5142344847559155 0 0 0
22 1 12.262050081974703 3.980360318848286 4.083162242746429 0 0 0
30 1 17.566263649880806 3.990938889139561 4.200874301955531 0 0 0
217 1 16.151834539237758 5.397036854127585 5.539699885678699 0 0 0
38 1 23.16489699372582 4.063564466188314 4.1410861293836385 0 0 0
225 1 21.744012096234858 5.447043007386438 5.407757102310633 0 0 0
46 1 28.527696399248782 3.9993401132599558 4.0056118804037135 0 0 0
233 1 27.18260664567487 5.444183841368243 5.414616766344452 0 0 0
193 1 32.56938650781954 5.34500228538737 5.416388895402624 -1 0 0
54 1 1.2892555753562123 9.394004439559023 4.032230141452004 0 0 0
196 1 2.662206146442526 8.038734670534138 5.4105359306006715 0 0 0
55 1 4.077420464191898 6.8422353443218356 4.07651477328399 0 0 0
62 1 6.870302364143998 9.671356102430638 4.223280137277318 0 0 0
204 1 8.205616984411474 8.149271151745406 5.4817970940783445 0 0 0
63 1 9.551396585063214 6.682747176505381 4.084156869942754 0 0 0
70 1 12.221263948650186 9.490690336408452 4.115226542332478 0 0 0
212 1 13.623744499971835 8.141393797048284 5.408216947417293 0 0 0
71 1 14.939069759820862 6.661989926056622 4.060994553749138 0 0 0
78 1 17.730596734723818 9.4616303412799 4.0207026778824675 0 0 0
79 1 20.331217451089447 6.782040173325951 3.988700267369213 0 0 0
220 1 19.0032439640452 8.157009644967374 5.505115942650856 0 0 0
86 1 23.141089711082657 9.603494544747804 4.008942624773742 0 0 0
87 1 25.925126658188027 6.792691032896411 4.039260594002226 0 0 0
228 1 24.497296510210553 8.195592240475778 5.423180897393677 0 0 0
94 1 28.5220351809287 9.49576950927448 4.155115046018861 0 0 0
95 1 31.189290552863135 6.7937847925004125 3.959020824430628 0 0 0
236 1 29.907963811266416 8.123245136752127 5.4332481674395385 0 0 0
103 1 3.988132869359091 12.141130160788595 3.9714323898606163 0 0 0
249 1 5.257893147335621 10.909824047294238 5.463039907683018 0 0 0
111 1 9.580806851920386 12.290788223447997 4.273081928291337 0 0 0
257 1 10.850751733382138 10.799890550500969 5.490431525656166 0 0 0
119 1 14.91585072300065 12.180126522537803 4.049359296649204 0 0 0
265 1 16.212012352558975 10.834806898110115 5.446364384661786 0 0 0
127 1 20.343638799985296 12.347432802717005 3.977759282354861 0 0 0
273 1 21.63262010824835 10.931966824823766 5.431917868761764 0 0 0
135 1 25.889662525352772 12.254971289922976 4.196717245821009 0 0 0
281 1 27.268952022432476 10.790537426293081 5.474116737622611 0 0 0
241 1 0.040348053327321054 10.863164639099601 5.377074359427285 0 0 0
143 1 31.233392775771335 12.219059659877136 4.054129741121333 0 0 0
102 1 1.4203151138462877 14.989174013376859 4.00140679890356 0 0 0
244 1 2.712531580845526 13.6389561740842 5.286165623912789 0 0 0
1009 1 32.561972073112784 16.20872585261515 5.322687394024534 -1 0 0
422 1 23.025855194763466 15.044888474190767 15.026457513734776 0 0 0
110 1 6.708391799393221 14.838137848202786 4.125998384942757 0 0 0
252 1 8.072437472381656 13.643358761889923 5.573773765078029 0 0 0
556 1 18.963620131168454 13.511117363526118 16.229881788252438 0 0 0
118 1 12.2335014237813 14.915712444601473 4.104086419936577 0 0 0
260 1 13.557416931643768 13.520596980559342 5.425606532938001 0 0 0
1033 1 16.203824328582666 16.27164132979899 5.3859707737838525 0 0 0
126 1 17.56185837069286 14.9586944254041 4.023353924689653 0 0 0
268 1 18.92131806249931 13.630921976767508 5.415564035898409 0 0 0
1179 1 19.119040682817975 16.268604749741005 13.61768550839491 0 0 0
134 1 23.037145674740938 14.88369192818206 4.0516319465924555 0 0 0
276 1 24.478697766228496 13.58852131989691 5.44011518549254 0 0 0
1049 1 27.235093316219984 16.28545899066573 5.5139035513689825 0 0 0
142 1 28.58544302904971 14.893861192177333 4.065032649259222 0 0 0
284 1 29.922714364871563 13.48256314397269 5.460101989645174 0 0 0
147 1 2.8101512970060805 0.023951971273115533 8.178556982353994 0 0 0
149 1 1.3565510170224055 1.332318699296058 6.767897791934817 0 0 0
151 1 4.146720102940787 1.477092604635824 9.444875386743012 0 0 0
154 1 5.45515598424775 2.811049133312985 7.99752059278245 0 0 0
155 1 8.129673888597285 0.031024410752001748 8.284132426125092 0 0 0
157 1 6.846476018555919 1.351060643498172 6.802000041774448 0 0 0
159 1 9.612852303591986 1.309558587227327 9.566767868147888 0 0 0
162 1 10.901443932692912 2.66011260950216 8.176914606235378 0 0 0
165 1 12.343247289037247 1.3550544124783839 6.894418488015949 0 0 0
167 1 14.937649170615746 1.355329881177657 9.539340606378088 0 0 0
170 1 16.275206352686745 2.7770393632242034 8.143597665877989 0 0 0
173 1 17.610597914330697 1.370293521476546 6.8284047930008525 0 0 0
171 1 19.02189478717891 0.0292859350426016 8.209788853863804 0 0 0
175 1 20.42208607810973 1.3196972919642875 9.558213742055852 0 0 0
178 1 21.718150497368452 2.6961018145235727 8.129470435683412 0 0 0
181 1 23.176975451057654 1.404612226317871 6.718503271648989 0 0 0
179 1 24.476423874313443 0.06216499216941971 8.067915475053272 0 0 0
183 1 25.801972482896407 1.358739005505727 9.531590299097713 0 0 0
186 1 27.158558049341252 2.7743783966338262 8.244371813380488 0 0 0
189 1 28.512317938133613 1.4031735806835455 6.781804961546997 0 0 0
146 1 0.02314567354099495 2.7083041914980432 8.086525706365777 0 0 0
191 1 31.267745615380225 1.457293423484987 9.451693902982978 0 0 0
150 1 1.420457531047158 4.0043410038883485 9.495146860232133 0 0 0
195 1 2.6959102591407373 5.397157008273095 8.107202350489777 0 0 0
152 1 4.095003977224887 4.096522198093428 6.658693622852375 0 0 0
158 1 6.759265893588335 4.069557217928145 9.399511970290245 0 0 0
203 1 8.18359922470477 5.46358238872701 8.07471447284794 0 0 0
160 1 9.525116166585937 4.027464076537493 6.827325871139523 0 0 0
166 1 12.256156247878655 4.032866895228617 9.534093133776853 0 0 0
211 1 13.514578541725026 5.386428439781897 8.132435790145072 0 0 0
168 1 14.867800798517889 4.109281903958595 6.813282581916982 0 0 0
174 1 17.72300207255096 3.995016325930641 9.468769038275363 0 0 0
176 1 20.433799178786902 4.074288056836632 6.732306701223574 0 0 0
219 1 18.98966002862351 5.403543231180201 8.058252783154112 0 0 0
182 1 23.192673601616043 4.0732670280782735 9.43384952180023 0 0 0
184 1 25.86365292909731 4.146982264521834 6.822583246017376 0 0 0
227 1 24.54515267755886 5.573067204046374 8.152923163458244 0 0 0
190 1 28.469749674388723 4.134802774001193 9.494227393728188 0 0 0
192 1 31.209286400048924 4.058209700313006 6.773015331535032 0 0 0
235 1 29.83722282952137 5.515796681372978 8.138959205925577 0 0 0
197 1 1.3215179932924648 6.693443282463076 6.789511300044172 0 0 0
198 1 1.372564222090439 9.445424153214033 9.62281836823952 0 0 0
199 1 4.003581570973959 6.803931505317683 9.4959946085631 0 0 0
200 1 3.9896238143419342 9.429737461460704 6.727974258065047 0 0 0
202 1 5.275899537471598 8.138800493023858 8.13368255866855 0 0 0
205 1 6.788349993697446 6.828884596575622 6.761728852911861 0 0 0
206 1 6.755051510750018 9.332800371071592 9.476793391902897 0 0 0
207 1 9.603550998070292 6.749944587021614 9.456202202023743 0 0 0
208 1 9.522395591876457 9.434610436148212 6.870905599289795 0 0 0
210 1 10.945321440430579 8.18967108124011 8.072720581106797 0 0 0
213 1 12.275300758471905 6.807325590581291 6.749861348140366 0 0 0
214 1 12.19594800914563 9.525440317008277 9.5601467082622 0 0 0
215 1 14.906919331185085 6.721233494007184 9.527052661833046 0 0 0
216 1 14.868830635558874 9.467407308836975 6.897484254350177 0 0 0
218 1 16.1967073462987 8.153633112096754 8.272665834838211 0 0 0
221 1 17.56329535593133 6.781794157834335 6.857894611389221 0 0 0
222 1 17.67841515945803 9.439641999572281 9.555311007356574 0 0 0
223 1 20.37431889095641 6.692066197462621 9.469285967413526 0 0 0
224 1 20.350573781189084 9.519040282624331 6.794925398549551 0 0 0
226 1 21.749609560752155 8.205037563626238 8.19706223783214 0 0 0
229 1 23.10081957654973 6.86867386731408 6.678440985798557 0 0 0
230 1 23.093670984380967 9.549071954487895 9.509265794662705 0 0 0
231 1 25.84528035708003 6.924415643008003 9.479154893879526 0 0 0
232 1 25.826889748139262 9.627409390526854 6.830853499078725 0 0 0
234 1 27.219185058920747 8.221535293746912 8.114685716571627 0 0 0
237 1 28.577721610105847 6.8274487312855285 6.731360353798253 0 0 0
238 1 28.487749288127134 9.606293801686123 9.466391247174696 0 0 0
194 1 -0.010884717427849466 8.14123604871222 8.262526719870417 0 0 0
239 1 31.229734587273242 6.7901888955059455 9.6263603944195 0 0 0
240 1 31.33154535048103 9.491648352976856 6.837899558515901 0 0 0
243 1 2.6755545841494093 10.855321885657311 8.209166113124763 0 0 0
245 1 1.4068799895486361 12.231606564634292 6.765672340481631 0 0 0
247 1 4.114628099495471 12.13754983510671 9.543270199772408 0 0 0
251 1 8.102688604102708 10.82991538991912 8.133304755112635 0 0 0
253 1 6.751407428994461 12.255721524279146 6.794677276478567 0 0 0
255 1 9.507835589407053 12.205937305391869 9.435237908357191 0 0 0
259 1 13.574920054730441 10.903301969207126 8.232979079652898 0 0 0
261 1 12.156495356426502 12.183309995736316 6.87373121365756 0 0 0
263 1 14.93463997507749 12.181316195582912 9.509493497006856 0 0 0
269 1 17.627818926109192 12.264146372010554 6.78464242756815 0 0 0
267 1 18.988780595340536 10.872942079640639 8.1301265544215 0 0 0
271 1 20.363912919740415 12.329474530617395 9.350457499229549 0 0 0
277 1 23.144817057924428 12.265422548881403 6.813678534139815 0 0 0
275 1 24.403115462684664 10.805646003666888 8.137246722701926 0 0 0
279 1 25.755929598355557 12.22548712812172 9.532265814323853 0 0 0
285 1 28.553947066995892 12.165899168469712 6.829001394063744 0 0 0
283 1 29.906476495335333 10.8280287607814 8.161044243152192 0 0 0
287 1 31.27033702193628 12.132451007719444 9.538453250523062 0 0 0
410 1 16.323839771965513 13.627729221499834 13.463032928771536 0 0 0
242 1 0.0537913176507916 13.54655978242355 8.136195170710222 0 0 0
246 1 1.4307568545638092 14.957632845108293 9.39915174152714 0 0 0
248 1 4.043035117449736 14.95164679302333 6.64051269314424 0 0 0
250 1 5.381884526085016 13.647307899885444 8.142616584731382 0 0 0
254 1 6.751356894253074 15.019002283519553 9.420284506639856 0 0 0
256 1 9.457964709500747 15.02210491344558 6.865756503108021 0 0 0
258 1 10.90638884277387 13.598188684919462 8.223591511975298 0 0 0
1027 1 13.682944187968387 16.22333882968517 8.103726610501017 0 0 0
262 1 12.213913900339119 14.979519687987358 9.540811646410168 0 0 0
264 1 15.069323487617593 14.886353369306034 6.791557804325866 0 0 0
266 1 16.31170652521827 13.560456337455543 8.23934556425362 0 0 0
270 1 17.64697691250107 14.991287502637425 9.631162791143026 0 0 0
272 1 20.351544502598404 14.968975876238739 6.79367996178778 0 0 0
274 1 21.76983954638372 13.664935199009927 8.070977606510823 0 0 0
278 1 23.122227253857115 14.958137450298489 9.508281610040758 0 0 0
1043 1 24.482723458286713 16.211331937371195 8.117750063482925 0 0 0
280 1 25.86985928478923 14.812786320977741 6.787638136598491 0 0 0
282 1 27.134970736612534 13.415223325806442 8.150208044471134 0 0 0
286 1 28.31857832245388 14.963998990628081 9.558426718697898 0 0 0
1051 1 29.948790261733787 16.247494167992524 8.241355086370993 0 0 0
288 1 31.28387367900459 14.810740042256212 6.848304325933777 0 0 0
292 1 2.835879249481061 2.7911682755258873 10.907934696467505 0 0 0
293 1 1.5021950296522466 1.3804053653481012 12.229957145924216 0 0 0
297 1 5.324360978588608 -0.004938016232670981 10.92800858039268 0 0 0
300 1 8.178899101317064 2.8145406518951774 10.842221305500724 0 0 0
301 1 6.817097989681687 1.3725034530521774 12.304215068838307 0 0 0
308 1 13.586939980181668 2.724865514433583 10.810048429522386 0 0 0
309 1 12.282922605037493 1.351510892658218 12.161467554712093 0 0 0
317 1 17.620074126743756 1.360782796902121 12.238190237830402 0 0 0
316 1 19.019188207617145 2.669379553636094 10.831630389470117 0 0 0
414 1 17.7073252076733 14.886417472618609 14.916141819449289 0 0 0
325 1 23.118787881931123 1.3857859298547246 12.073022150653845 0 0 0
324 1 24.507964226626466 2.7059377516884133 10.83856477710797 0 0 0
333 1 28.472299889838425 1.3612563706470637 12.181116590980585 0 0 0
332 1 29.88497917362132 2.706869574608147 10.801804409706032 0 0 0
296 1 4.1504754117523 4.08908526644847 12.19980104302152 0 0 0
345 1 5.407610465070479 5.454341953965294 10.686838823495599 0 0 0
304 1 9.546683266176338 4.158947035608735 12.21002745678031 0 0 0
353 1 10.900413009232004 5.423989535018795 10.768834425945204 0 0 0
312 1 14.945277808423828 4.120573026552289 12.201202964164075 0 0 0
361 1 16.371086551649725 5.387210014939214 10.852709098015668 0 0 0
320 1 20.405870061137538 4.013616320016278 12.171066845157654 0 0 0
369 1 21.860546030134675 5.390422281717342 10.819046988579519 0 0 0
328 1 25.822264797015308 4.110341566981174 12.252199273522505 0 0 0
377 1 27.185155990533804 5.508631710468448 10.825086068930156 0 0 0
337 1 -0.0063112791014035 5.357036455481302 10.895218926642652 0 0 0
336 1 31.12054055623432 4.014812784416945 12.302956938812589 0 0 0
340 1 2.6860111349075098 8.090095223791847 10.94613824643261 0 0 0
341 1 1.3496426181484538 6.753399482211152 12.27531313933381 0 0 0
344 1 4.080137673884248 9.432759919641397 12.187221662827936 0 0 0
348 1 8.149232958365552 7.971883125432897 10.810360469064504 0 0 0
349 1 6.829512244133748 6.70959651472612 12.24240834056092 0 0 0
352 1 9.437614280135517 9.449992625827626 12.274090879101939 0 0 0
356 1 13.51578003070956 8.104008614959898 10.883766252041083 0 0 0
357 1 12.214080410245339 6.749777767233971 12.206058306168515 0 0 0
360 1 14.792948479708205 9.43570957019525 12.380153681375639 0 0 0
365 1 17.66775703625604 6.763071406383495 12.268410921262454 0 0 0
364 1 19.05889605693515 8.112596080442698 10.893504586419533 0 0 0
368 1 20.395695511705075 9.584755349527436 12.195427028094636 0 0 0
373 1 23.164106312250944 6.809476025334368 12.210581314009216 0 0 0
372 1 24.412406906023218 8.230751058247186 10.887993305331754 0 0 0
376 1 25.857897675975927 9.52665108168848 12.245841197602582 0 0 0
381 1 28.5148606750664 6.827082953190359 12.213477667655688 0 0 0
380 1 29.870980845258828 8.262048171861963 10.891328041463407 0 0 0
384 1 31.300174843209465 9.49461752313449 12.153761540089404 0 0 0
389 1 1.388758159470385 12.271093254941373 12.265352342096874 0 0 0
393 1 5.476931676638196 10.7266863127771 10.903801701272448 0 0 0
397 1 6.862299332642363 12.203618395862625 12.085102806752662 0 0 0
401 1 10.769443489409227 10.76837219044111 10.914631192334305 0 0 0
405 1 12.078083615826017 12.295635265872338 12.273561801454026 0 0 0
409 1 16.138199151178792 10.760904708547699 10.956846804346393 0 0 0
413 1 17.5995770120072 12.140475435567335 12.168719072897389 0 0 0
417 1 21.72600572903726 11.03552282548965 10.729380148511456 0 0 0
421 1 22.972890696959226 12.173315646755194 12.289380079150659 0 0 0
425 1 27.151543744584966 10.925692439734798 10.933167556245207 0 0 0
429 1 28.62011512028335 12.195430704422341 12.26519808760973 0 0 0
385 1 0.08939747982302748 10.872177449338723 10.931795837156328 0 0 0
388 1 2.7684316303586707 13.570930153768789 10.813306437516347 0 0 0
11 1 8.16826316900866 0.08439712050456905 2.668712842845333 0 0 0
392 1 4.140445116251579 14.899445595048915 12.225193601216274 0 0 0
396 1 8.198857999007283 13.58608111859379 10.782793271386572 0 0 0
400 1 9.546298262395798 14.985606753783566 12.221102932720475 0 0 0
404 1 13.536655613707195 13.639307591373573 10.883688855778276 0 0 0
406 1 12.344668926645063 14.932211270940163 14.962899429228484 0 0 0
408 1 15.018681494099418 15.089825810368897 12.194369725435509 0 0 0
412 1 18.962631534261114 13.526588524087519 10.858069751603338 0 0 0
416 1 20.260949550988155 14.933511787580398 12.245172723346684 0 0 0
420 1 24.366662745632322 13.532400789212488 10.986643004638506 0 0 0
424 1 25.720114657498964 14.831894875066533 12.423835998300337 0 0 0
1193 1 26.98497208481308 16.253977600337446 10.99699769957826 0 0 0
428 1 29.890298616012892 13.550668547721564 10.816316804001756 0 0 0
432 1 31.20487094207051 14.840786449499745 12.295479556898812 0 0 0
1313 1 10.965041233486978 16.286693292539333 16.245992086233066 0 0 0
891 1 18.866908710569845 16.24647816841867 2.6311838304785136 0 0 0
295 1 4.1212716115017685 1.263003426526631 14.971424497284058 0 0 0
298 1 5.363632926115759 2.720393902259125 13.629656343357318 0 0 0
394 1 5.509036298808766 13.586271623555593 13.483627779851435 0 0 0
303 1 9.536173362592656 1.390478770052399 14.943520128357939 0 0 0
306 1 10.955096156849669 2.7198936899042403 13.479257490634131 0 0 0
452 1 13.651614663130358 2.681528662398515 16.26050739554833 0 0 0
311 1 14.955797654673507 1.2786417827676164 14.882648513472114 0 0 0
314 1 16.286394557390334 2.7412520960325897 13.52972449147529 0 0 0
402 1 10.897831292197939 13.721855362768821 13.594991325639452 0 0 0
319 1 20.415267221011575 1.270967758098608 14.956157587421725 0 0 0
322 1 21.79528184888541 2.653321756273989 13.575462859664865 0 0 0
323 1 24.40945478530092 -0.0006314918575043883 13.493900167652003 0 0 0
327 1 25.796758785848745 1.308041937877202 14.90840203748732 0 0 0
330 1 27.14256590045933 2.6501703420460596 13.522444729403366 0 0 0
290 1 32.590781409538096 2.6079549720100137 13.532985207889373 -1 0 0
398 1 6.782688675097844 15.024564884933318 14.908868979568568 0 0 0
335 1 31.152371797932382 1.242754033263129 14.85620996672719 0 0 0
476 1 29.77112493920424 2.686590404349511 16.270646888719117 0 0 0
294 1 1.3838291752505882 3.824357487181421 14.926681443657786 0 0 0
339 1 2.696275015930353 5.300818290521968 13.623179489070486 0 0 0
481 1 0.030652674774905377 5.300981017205209 16.166449208904165 0 0 0
302 1 6.674113720175598 4.096755097606245 14.941218933347603 0 0 0
347 1 8.14500003459551 5.439570713277072 13.624119617558396 0 0 0
310 1 12.31053578283897 4.011379758285174 14.840925091098832 0 0 0
355 1 13.620687123938811 5.455810370681242 13.589791494258673 0 0 0
318 1 17.73682140806409 4.095501861932802 14.833335044802181 0 0 0
363 1 19.05592711416669 5.440601303768927 13.518340157681031 0 0 0
326 1 23.14345589956605 4.055222110843133 14.90814277447584 0 0 0
371 1 24.460964815156423 5.444550627485435 13.595172672302038 0 0 0
334 1 28.41769739878243 4.068001850077625 14.980212640006279 0 0 0
532 1 2.7080181983451475 13.554535207346897 16.225296886273092 0 0 0
379 1 29.78539316065618 5.413236202251432 13.642646232993764 0 0 0
342 1 1.3341266860704128 9.497082433766547 15.053861333350413 0 0 0
484 1 2.705563897221708 8.053267713108616 16.26678053243039 0 0 0
343 1 4.011036374289496 6.761592441229471 14.977904120333443 0 0 0
346 1 5.4930798029152195 8.045459144786284 13.610059282848963 0 0 0
350 1 6.7280598510619125 9.521669514909586 14.92202832141194 0 0 0
351 1 9.447900019742644 6.767110530943367 14.997972353466134 0 0 0
354 1 10.799731431422815 8.058037306460877 13.537832835301877 0 0 0
358 1 12.116601759629988 9.490451039374387 15.010787158229126 0 0 0
359 1 15.037320924816076 6.66061036769176 15.045800718325092 0 0 0
362 1 16.293438766820188 8.057114507839655 13.658268310492202 0 0 0
366 1 17.73059059299878 9.386212320034991 14.940416258569899 0 0 0
367 1 20.41476008487376 6.689004686413252 14.956863051428456 0 0 0
390 1 1.3977830480625915 14.994065448533163 14.916635644495882 0 0 0
370 1 21.746523676076865 8.077055861244233 13.55417833704621 0 0 0
374 1 22.98750891495146 9.492167035045311 14.799083402970572 0 0 0
375 1 25.74474750493936 6.771736358447305 14.993578967680612 0 0 0
378 1 27.12205649990194 8.138118678499414 13.618883311550116 0 0 0
382 1 28.45699831958673 9.481969658087918 14.989070524318597 0 0 0
338 1 32.57214293764685 8.18406142300594 13.55429197592225 -1 0 0
383 1 31.205816686478638 6.8190243668122354 14.93585928497933 0 0 0
427 1 29.905240090872578 10.818488144409422 13.683113913911566 0 0 0
387 1 2.7208695581409628 10.81300437088474 13.579323254401944 0 0 0
431 1 31.188480228572644 12.335548624648677 14.967286284649287 0 0 0
391 1 4.088459410185079 12.297932395742947 14.83209759241384 0 0 0
537 1 5.365354342883179 10.824937953360587 16.149406104344507 0 0 0
395 1 8.111200130609474 10.792772066171855 13.505839122559669 0 0 0
399 1 9.37746662945061 12.253942541371611 14.857683134615607 0 0 0
403 1 13.476552483451433 10.876131170735722 13.67705845336442 0 0 0
407 1 14.914050894940292 12.220535492334363 14.920250857405813 0 0 0
419 1 24.454717744054047 10.90017412967955 13.630979153983976 0 0 0
415 1 20.33221441028967 12.199923572916024 14.911347428647451 0 0 0
411 1 18.96582462585617 10.886896271582351 13.52263868981737 0 0 0
423 1 25.77827399312732 12.298136245899581 15.010020516556938 0 0 0
140 1 29.848271791210212 13.545090073598983 0.03871972887714037 0 0 0
460 1 19.023803880952364 2.750998558303375 16.19332829904121 0 0 0
492 1 8.077752870046554 8.110917765400288 16.24777627440454 0 0 0
516 1 24.301190632403014 8.155279110750085 16.23080157021045 0 0 0
561 1 21.663643105569385 10.908856478257835 16.160622716618047 0 0 0
569 1 27.080565517210765 10.895006657286741 16.264679243018406 0 0 0
540 1 8.081358018899747 13.715396378848297 16.285448993961694 0 0 0
132 1 24.568000765690222 13.674619027073517 -0.006623890172853919 0 0 0
457 1 16.247971905668194 -0.012774919381435268 16.21059071253035 0 0 0
865 1 32.4221510108657 16.24145137551629 0.00463347325248975 -1 0 0
4 1 2.7417195103725067 2.8135345154844646 -0.007098895143919037 0 0 0
84 1 24.40626355359555 8.101384002638625 -0.01750238940073956 0 0 0
129 1 21.82423123992119 10.985589139734913 0.05629330298570778 0 0 0
434 1 32.51773805799449 2.710985409780986 18.938923979633184 -1 0 0
745 1 16.28994057929845 0.02158930164569739 27.210632146260927 0 0 0
437 1 1.2556401912640327 1.2786379330328554 17.668714886890346 0 0 0
442 1 5.458437125326923 2.7032533608239686 19.045350185634206 0 0 0
443 1 8.197693902529087 0.037704287988309125 18.98138575715528 0 0 0
445 1 6.806858589825708 1.3197332440912999 17.650103788278102 0 0 0
450 1 10.85981196283018 2.7137877910565367 19.024651070131874 0 0 0
453 1 12.266116396040037 1.3920628852313028 17.612339303498686 0 0 0
458 1 16.289293239515764 2.6791399630857438 19.02792500202644 0 0 0
461 1 17.640674955566034 1.3998864391261212 17.509149109319747 0 0 0
729 1 5.340795316874833 0.0016469725523151624 27.16422075276795 0 0 0
465 1 21.804048066318337 -0.015297602494930448 16.321672110321735 0 0 0
466 1 21.73765895581179 2.6607354377215726 19.03393582562009 0 0 0