LAMMPS data file via write_data, version 19 Nov 2024, timestep = 60100, units = metal

1728 atoms
1 atom types

-0.03297943503124401 32.612979435032535 xlo xhi
-0.03297943503124401 32.612979435032535 ylo yhi
-0.03297943503124401 32.612979435032535 zlo zhi

Atom Type Labels

1 Si

Masses

1 28.0855

Atoms # atomic

1179 1 18.912464983749874 16.26202661916728 13.635777581279536 0 0 0
4 1 2.7393321647313047 2.646237516848889 0.048228662735505315 0 0 0
5 1 1.3469252260623532 1.3082389536322483 1.3478112177490484 0 0 0
1297 1 32.60156366751274 16.26363535692481 16.196047054964726 -1 0 0
10 1 5.561016844181194 2.7432109667068985 2.6877489943389397 0 0 0
1155 1 2.7375247458120313 16.27242024450633 13.548345255178074 0 0 0
13 1 6.889925518921802 1.3731554537850295 1.3087271782469818 0 0 0
18 1 10.895511822046538 2.624053707464339 2.6107982606427043 0 0 0
313 1 16.18769941467997 0.034404116323351275 10.841818774306354 0 0 0
21 1 12.220634318093914 1.30469043527434 1.1802124172331945 0 0 0
26 1 16.30609469377412 2.6250265449514605 2.779973757772366 0 0 0
29 1 17.635082143813754 1.2475716750296348 1.4936307977273633 0 0 0
426 1 27.26129467665171 13.60659526960015 13.576930917411044 0 0 0
34 1 21.65035776344883 2.824090282382954 2.80744883732542 0 0 0
37 1 23.021748212731552 1.3932981581334398 1.336848232244784 0 0 0
36 1 24.351776857207632 2.760075143394415 -0.013592004264732158 0 0 0
42 1 27.033961495607215 2.6800814936398183 2.6594349524213166 0 0 0
45 1 28.51241373069448 1.4148591316567205 1.2813440678307793 0 0 0
2 1 -0.0031890664388996015 2.7226381419859775 2.6498159792488405 0 0 0
51 1 2.830469291701821 5.2586648793740025 2.6374428855354517 0 0 0
8 1 4.199760372883903 4.045624142769982 1.30862586127175 0 0 0
57 1 5.448904501320669 5.458720127043863 0.09416951803557154 0 0 0
59 1 8.268294216768133 5.368876925814372 2.564362430185024 0 0 0
16 1 9.536711520322564 4.033708217630688 1.1478936365341488 0 0 0
145 1 32.57498055192452 0.011441333712269852 5.424019754672134 -1 0 0
67 1 13.67480874170118 5.407834998564713 2.504995283013426 0 0 0
24 1 14.980123309073113 3.9347244537038915 1.2839225317941168 0 0 0
32 1 20.384871309608133 4.065122282682765 1.2681395730952663 0 0 0
75 1 18.953645189621398 5.465586433948693 2.6804051908157676 0 0 0
81 1 21.741083822050037 5.3618128038078305 -0.02367774157403932 0 0 0
40 1 25.623206453747375 4.221733530171554 1.3799423669749142 0 0 0
83 1 24.342801162545395 5.595691509239854 2.7187053652924007 0 0 0
48 1 31.312482598441782 4.095069496305284 1.3310037317123047 0 0 0
91 1 29.91099735746067 5.3673027410297784 2.742346503090895 0 0 0
161 1 10.828561894924913 0.04006347052396109 5.423680708915809 0 0 0
53 1 1.5436291837177605 6.643702136378091 1.343555797095989 0 0 0
56 1 4.040179729924796 9.612314009924482 1.1820269217007755 0 0 0
58 1 5.2131801541147045 8.203782738125826 2.656404672778194 0 0 0
60 1 8.184226667533965 8.20977992004969 0.09359537141273552 0 0 0
61 1 6.773506821281201 6.959017723668966 1.4411413455544815 0 0 0
64 1 9.542800566186623 9.540223324845662 1.439765047006602 0 0 0
66 1 10.899316783563583 8.040266320060502 2.7697784639475187 0 0 0
69 1 12.285445700811247 6.734619780865934 1.2973751837389613 0 0 0
72 1 14.929996134372837 9.355997813568942 1.3347048506469388 0 0 0
74 1 16.330346989476652 8.109588737179621 2.7956240855751893 0 0 0
77 1 17.575989894361374 6.781862857489019 1.353218546966194 0 0 0
80 1 20.289825332094086 9.454112040791669 1.2841153259907871 0 0 0
82 1 21.65576660721547 8.134840455799788 2.70256890092061 0 0 0
85 1 23.023143085650634 6.872478193903646 1.2491451705798495 0 0 0
88 1 25.794447848112814 9.436750091891158 1.3308766919430777 0 0 0
90 1 27.241816413680425 8.09154534455266 2.6755283689345304 0 0 0
93 1 28.667307927187217 6.755797471999304 1.2991343676813238 0 0 0
50 1 0.060197910945603894 8.084633329839924 2.5990966084484706 0 0 0
96 1 31.239480830164407 9.317303367446009 1.371481059168872 0 0 0
99 1 2.5833713313525455 10.827454771661158 2.68052440707809 0 0 0
101 1 1.2644135813595831 12.199905236888473 1.2455272483017399 0 0 0
35 1 24.492240650518035 0.009364877206962774 2.663373401633713 0 0 0
107 1 8.141432740249515 10.96737715998327 2.7261452193767477 0 0 0
109 1 6.808499730363799 12.244473830988408 1.3652544258245036 0 0 0
115 1 13.659096454532358 10.819211889205668 2.6716562855370722 0 0 0
117 1 12.220958335060963 12.164371007311306 1.328052188395672 0 0 0
121 1 16.263448091932133 10.846478824836714 0.09328150565017904 0 0 0
125 1 17.643012691673395 12.277393867886744 1.320012073765422 0 0 0
123 1 19.00216264304296 10.908675252681478 2.652965948718483 0 0 0
133 1 23.172556162530757 12.231424425324287 1.3773070776225604 0 0 0
131 1 24.543753329144263 10.844005623192405 2.7620773915307137 0 0 0
137 1 27.17486027067626 10.783704019153522 0.022522523680292568 0 0 0
141 1 28.528246500339517 12.099251810862755 1.3019322054369802 0 0 0
139 1 29.984839884548617 10.83603182834145 2.5855899702522 0 0 0
100 1 2.6524355466538587 13.4813273227894 -0.022060592334661858 0 0 0
430 1 28.565989998293393 14.939235079796163 14.895746864061772 0 0 0
104 1 4.040769456584142 14.971294438099099 1.2346448244858248 0 0 0
106 1 5.419443110306506 13.560117718660159 2.602221852845524 0 0 0
108 1 8.108295203830846 13.65639307779886 0.05913677639220496 0 0 0
564 1 24.456359002825735 13.5580225981365 16.286315230205005 0 0 0
112 1 9.493802859518413 14.873818680374981 1.291893162220474 0 0 0
114 1 10.88390405854156 13.557875918142125 2.6852865720009165 0 0 0
116 1 13.56612500773371 13.598049070287312 -0.0038637092345013844 0 0 0
120 1 14.822571956907224 14.97111034899411 1.4222267755988063 0 0 0
122 1 16.26028431944039 13.567955539585746 2.723129330704238 0 0 0
128 1 20.47076189999124 14.88893815097607 1.2155639803561307 0 0 0
130 1 21.7661976002846 13.631331168429394 2.677188286609831 0 0 0
136 1 25.878064948781866 15.039241487218709 1.412864209683794 0 0 0
418 1 21.72283893111119 13.502662002931723 13.671634473354539 0 0 0
138 1 27.228819165395446 13.54556912214484 2.6872529411954265 0 0 0
98 1 32.593909346744134 13.620898186051555 2.638285138155285 -1 0 0
144 1 31.163088806957866 14.957618022790209 1.3632240834392835 0 0 0
422 1 23.11188155507419 14.95215289649452 14.967922208181443 0 0 0
148 1 2.650281452448322 2.705476609719495 5.32581088790457 0 0 0
7 1 4.131337337439309 1.3962380393282523 3.96847364752667 0 0 0
153 1 5.427906576609576 0.04069017660004592 5.340536770835202 0 0 0
156 1 8.185758317329746 2.6567633167703146 5.397003933315919 0 0 0
15 1 9.532933109694463 1.3102117933598092 3.9706398431112895 0 0 0
164 1 13.495980077003912 2.6840552604416072 5.411769156923771 0 0 0
23 1 14.858904043050744 1.3120463881880537 4.0168074007744 0 0 0
31 1 20.327313198742928 1.3583555147554376 4.111209059143435 0 0 0
172 1 18.987811884509693 2.681479401777861 5.355815389291369 0 0 0
177 1 21.755464594317633 0.06799861900931072 5.47710477318276 0 0 0
39 1 25.784254376371337 1.2807928635595076 4.0965692218110155 0 0 0
180 1 24.53844928512033 2.7613590774229544 5.476296077900455 0 0 0
185 1 27.250958740674392 -0.03206592888911504 5.343866780039538 0 0 0
47 1 31.251470276110894 1.264845099659269 3.9907117021822915 0 0 0
188 1 29.89207308490292 2.651317414951564 5.254947316905072 0 0 0
6 1 1.2751644421092432 4.068154690748509 4.004436053468501 0 0 0
201 1 5.406010539020923 5.505320467655511 5.2833752837364445 0 0 0
14 1 6.8052913890446955 4.078437669745944 4.133908746388169 0 0 0
209 1 10.910912677923903 5.337035288085028 5.471130334648624 0 0 0
22 1 12.227205120323598 4.098513153266421 3.940133157374631 0 0 0
30 1 17.632825580190076 4.056924569181385 4.078502669242272 0 0 0
217 1 16.292291315082178 5.457978931091359 5.383136236057666 0 0 0
38 1 23.15973947534329 4.157776680894564 4.082334152442495 0 0 0
225 1 21.807434612988082 5.448585828290116 5.4123176548809155 0 0 0
46 1 28.44090139681494 3.9958422238746785 4.034481811885637 0 0 0
233 1 27.234448847106098 5.344844503378318 5.480772826003318 0 0 0
193 1 32.570324660333334 5.323033859310979 5.4339378949605175 -1 0 0
54 1 1.3448885949706935 9.400198251385898 4.009767437306788 0 0 0
196 1 2.6807065124211475 7.946470754310693 5.426002750325241 0 0 0
55 1 4.00714067908977 6.787345058154457 3.9429910385119347 0 0 0
62 1 6.708474961935728 9.664250739535333 4.077174872682381 0 0 0
204 1 8.105337215402326 8.204131428999169 5.416723008187841 0 0 0
63 1 9.532757091146934 6.662668302860666 4.076388733601015 0 0 0
70 1 12.297612216947986 9.431914905341568 4.059206335352702 0 0 0
212 1 13.6481928743432 8.086532743055674 5.437689017262489 0 0 0
71 1 14.930703968164988 6.695240234456396 4.002929517162049 0 0 0
78 1 17.713600977318002 9.429366998981365 4.086544260802962 0 0 0
79 1 20.361228267605693 6.795250081668411 4.027858331616252 0 0 0
220 1 19.01367953083588 8.102743136273986 5.527997495508223 0 0 0
86 1 23.093959479538224 9.514340726877693 3.9638379889888964 0 0 0
87 1 25.87320867829659 6.699671070489777 4.077407997863483 0 0 0
228 1 24.42606703999403 8.136283027787636 5.362366716620664 0 0 0
94 1 28.633568138262614 9.495293775141848 4.0774646353521815 0 0 0
95 1 31.308131643504083 6.762435297391948 4.022402889214708 0 0 0
236 1 29.97261861126866 8.167425141231407 5.369223574371704 0 0 0
103 1 4.096631596188661 12.101433829222486 3.9690251113123374 0 0 0
249 1 5.290135062715945 10.825412954810583 5.4900600858342194 0 0 0
111 1 9.4430958586713 12.279645749527104 4.134792848651911 0 0 0
257 1 10.914510242356107 10.861942845105963 5.44559842618263 0 0 0
119 1 14.85064101758023 12.184300711646568 4.082723436505276 0 0 0
265 1 16.35394518815714 10.810521027329695 5.388617566352858 0 0 0
127 1 20.342386352855616 12.290255283114039 3.918204207827709 0 0 0
273 1 21.529286627672832 10.788663832294967 5.33099449692254 0 0 0
135 1 25.97393611168564 12.265651940997335 4.086640901655571 0 0 0
281 1 27.22837771185326 10.8148277187207 5.504887398732815 0 0 0
241 1 32.59102739603087 10.868364944236506 5.334624808812285 -1 0 0
143 1 31.234091466891865 12.251271404142486 4.006464755165703 0 0 0
102 1 1.3265534846853124 14.972544603881822 3.9687905429512917 0 0 0
244 1 2.732977179991912 13.546501505069987 5.288658398411927 0 0 0
1009 1 32.59726213593148 16.278559368016133 5.323340994211375 -1 0 0
410 1 16.302742165445522 13.46748794095951 13.558926774515417 0 0 0
110 1 6.764138491939435 14.919770870568275 4.080996415760963 0 0 0
252 1 8.076964441813816 13.629549628561584 5.551001216109493 0 0 0
414 1 17.61214431698765 14.785905782116588 14.971335257668718 0 0 0
118 1 12.333117893872146 14.841943122891239 4.076993348790234 0 0 0
260 1 13.660357944303211 13.461634806209615 5.486929288003055 0 0 0
11 1 8.133075475184464 -0.024374446087662704 2.6834569701900883 0 0 0
126 1 17.61376939784837 14.922035404000392 4.016570664666295 0 0 0
268 1 18.93118769572913 13.58856418930061 5.431225440883328 0 0 0
1041 1 21.756947412918283 16.2501664388021 5.414205063883607 0 0 0
134 1 23.15397643651773 14.986046644265626 4.008987048732842 0 0 0
276 1 24.453153402815747 13.5959522683563 5.346694455774835 0 0 0
406 1 12.303204420812571 14.90294452288892 14.944280729925133 0 0 0
142 1 28.452513454759554 14.890344772758812 4.093370942404547 0 0 0
284 1 29.88337373271527 13.563728411437335 5.493148225916551 0 0 0
147 1 2.7042077680787755 0.0192238487907023 8.05370168698577 0 0 0
149 1 1.2703746591307177 1.3309591682334156 6.731674805079881 0 0 0
151 1 3.956215680129572 1.382777380842337 9.525607538656432 0 0 0
154 1 5.36874094838637 2.7053574392822353 8.133065137523564 0 0 0
1171 1 13.621011147337203 16.263983934986307 13.59420754702409 0 0 0
157 1 6.7937678377953965 1.3807358181258098 6.746082055024668 0 0 0
159 1 9.499089640986432 1.240167273178387 9.571437329778577 0 0 0
162 1 10.848853145776497 2.5916837015228698 8.215977785277968 0 0 0
165 1 12.193630294256426 1.3244815067782394 6.843042650752586 0 0 0
167 1 14.971477892033707 1.3500200241971259 9.438925997545438 0 0 0
170 1 16.376764780003185 2.8471293318316206 8.086704758083881 0 0 0
173 1 17.642070975181074 1.3366130711345394 6.804862362412787 0 0 0
402 1 10.903191775347992 13.636856394189087 13.559079270984993 0 0 0
175 1 20.416190983465068 1.3187347430740282 9.478349805333789 0 0 0
178 1 21.755212217033638 2.7721687372338617 8.156266395009151 0 0 0
181 1 23.17514978228917 1.416619292640215 6.757624877941283 0 0 0
398 1 6.649486496091968 14.996593556711321 14.82073246188404 0 0 0
183 1 25.93102275977153 1.317756876052819 9.466154296924032 0 0 0
186 1 27.29890951766925 2.7613206578704377 8.147129390567592 0 0 0
189 1 28.596099841841756 1.3734147816726787 6.660668578960568 0 0 0
146 1 0.041425504383617806 2.6876150634237423 8.153042417146699 0 0 0
191 1 31.281640593023365 1.3899718668305627 9.486173595573971 0 0 0
150 1 1.3206911812730797 4.026785390153626 9.616683815154259 0 0 0
195 1 2.5255480727004813 5.329894643666858 8.084343700360304 0 0 0
152 1 3.968040804086947 4.084834887384753 6.680714620626443 0 0 0
158 1 6.755901737682445 4.027635050967541 9.418270975308962 0 0 0
203 1 8.216889981080177 5.409232965593039 8.118825048501698 0 0 0
160 1 9.54974938007728 3.963484427877418 6.8422261545048695 0 0 0
166 1 12.165083552472446 3.9557576427278547 9.522511259750491 0 0 0
211 1 13.526651616649646 5.339577620319167 8.081238708051634 0 0 0
168 1 14.891901167258185 4.005660794793902 6.70436012868453 0 0 0
174 1 17.794130112549702 4.094155693289964 9.527210209828468 0 0 0
176 1 20.380999046330963 4.0265044174549125 6.721617132047698 0 0 0
219 1 19.04792090861469 5.390935183536026 8.113277502406081 0 0 0
182 1 23.251940399801498 4.168526070079611 9.497626089426761 0 0 0
184 1 25.864961214858237 4.073889916687367 6.853679859968203 0 0 0
227 1 24.538573690747423 5.561641691966659 8.104890490144298 0 0 0
190 1 28.56166719013291 4.139045821431615 9.568283342329986 0 0 0
192 1 31.22656899129196 3.999501675426741 6.751264638785711 0 0 0
235 1 29.918257318389678 5.416561086419765 8.06661645328188 0 0 0
197 1 1.2034440389724457 6.707642536086754 6.736665043481534 0 0 0
198 1 1.3015254567948062 9.490126092421047 9.547405521653403 0 0 0
199 1 3.992496424077864 6.674281759308031 9.479080884746178 0 0 0
200 1 3.941002800172415 9.385491800348179 6.733844420470767 0 0 0
202 1 5.326337872958863 8.147125263788107 8.115852679758962 0 0 0
205 1 6.786182100051426 6.812916535013225 6.742024716685467 0 0 0
206 1 6.84255990488047 9.419105109125805 9.445352537057687 0 0 0
207 1 9.53888706249788 6.73692978358408 9.506934028719886 0 0 0
208 1 9.524192796837285 9.574075676144263 6.732843569880392 0 0 0
210 1 10.900872589959892 8.141979924673032 8.12729518880455 0 0 0
213 1 12.269591492462256 6.717891900664315 6.734656442980813 0 0 0
214 1 12.19308405606608 9.519946622417072 9.529902012825694 0 0 0
215 1 14.943479590927621 6.75895162256546 9.384838525465751 0 0 0
216 1 15.020922411139852 9.473116570784281 6.806646611328498 0 0 0
218 1 16.345185439130596 8.109894345062438 8.131908602591649 0 0 0
221 1 17.657735891680534 6.633569752397939 6.727501398347078 0 0 0
222 1 17.586498216422346 9.444181820655245 9.567542642882355 0 0 0
223 1 20.387529149220146 6.770067997514904 9.486503072334944 0 0 0
224 1 20.329100626311014 9.48554685319859 6.8792240905380275 0 0 0
226 1 21.79378016641919 8.15227604308572 8.139791949445415 0 0 0
229 1 23.09288214997402 6.774672734400023 6.722990257228571 0 0 0
230 1 23.113967082485765 9.452330216096726 9.541564029713227 0 0 0
231 1 25.857192815086247 6.796201590516827 9.46776417926428 0 0 0
232 1 25.757412583285667 9.45183577254262 6.789122826316138 0 0 0
234 1 27.162223265731164 8.180088447968103 8.064887611001799 0 0 0
237 1 28.656664801283746 6.83873430681294 6.8116116983562724 0 0 0
238 1 28.474443075139277 9.530421236077453 9.46412306240852 0 0 0
194 1 32.55408472543442 8.098697196843963 8.114216512191211 -1 0 0
239 1 31.212365829337006 6.658798246800341 9.565163874164439 0 0 0
240 1 31.335721848446408 9.459253204634665 6.735780999327645 0 0 0
243 1 2.594714403870573 10.781854423129195 8.131366929002795 0 0 0
245 1 1.380240093600048 12.180711771289046 6.603474578928023 0 0 0
247 1 4.13032797579589 12.183677670836124 9.508100629200847 0 0 0
251 1 8.123307761663511 10.83107834484498 8.0970166303938 0 0 0
253 1 6.686496233651856 12.167451344824194 6.809036655205639 0 0 0
255 1 9.45683547030515 12.227372151084602 9.467869601664983 0 0 0
259 1 13.65162483813288 10.868623593315503 8.181512519219336 0 0 0
261 1 12.296400783859632 12.243865696715634 6.851248779208003 0 0 0
263 1 14.874810916483552 12.333014483838605 9.58181247238135 0 0 0
269 1 17.573844320531556 12.119453409362729 6.746901401238618 0 0 0
267 1 18.88568129063716 10.881766414495281 8.166516622000955 0 0 0
271 1 20.324089664294927 12.282164447809155 9.34414998998796 0 0 0
277 1 23.092241399675615 12.245248398331817 6.584104346833867 0 0 0
275 1 24.3863249653176 10.879512376014315 8.212893834795702 0 0 0
279 1 25.782770061064976 12.18144501118269 9.585099607894577 0 0 0
285 1 28.523130101568807 12.147607330271029 6.831662535989226 0 0 0
283 1 29.988240552261068 10.770472546195586 8.168249984208742 0 0 0
287 1 31.282019318775 12.169265347804059 9.541227820585059 0 0 0
1011 1 2.6995390412832276 16.282770323273564 8.134819705829297 0 0 0
242 1 0.014674627894217002 13.50274002771971 8.09339680180601 0 0 0
246 1 1.389638869028254 14.893094819296344 9.477415778184183 0 0 0
248 1 4.083500459589617 14.913924816629521 6.789789853709905 0 0 0
250 1 5.3956402662394325 13.617753399118683 8.142254999814334 0 0 0
254 1 6.759889071250757 14.969641447561731 9.449477029488518 0 0 0
256 1 9.558790525846867 14.97163548315671 6.858093838829593 0 0 0
258 1 10.903331103057639 13.601786704959503 8.15530745021298 0 0 0
1027 1 13.666283150591394 16.241913713265244 8.182925977986525 0 0 0
262 1 12.216976974255795 15.003188854305526 9.51888012134518 0 0 0
264 1 14.96366693273243 14.928042845251769 6.809334717318867 0 0 0
266 1 16.32755151377323 13.568288680500395 8.232830631187058 0 0 0
270 1 17.58772315981295 15.018808088016092 9.533405907441773 0 0 0
394 1 5.495664471460968 13.594935404007991 13.446745276293655 0 0 0
272 1 20.401548586822997 14.926763110055965 6.782731525874236 0 0 0
274 1 21.79318665030515 13.673578311643581 8.069117680570095 0 0 0
278 1 23.067721839818496 14.976151458359407 9.51602329029149 0 0 0
532 1 2.7217317033340027 13.56543851587949 16.246200315506982 0 0 0
280 1 25.76600842452213 14.934605565350447 6.776375236334059 0 0 0
282 1 27.065149719114338 13.466253198603155 8.047005424052246 0 0 0
286 1 28.51713021319305 14.93385003692489 9.40157421415834 0 0 0
386 1 0.017298982368833565 13.525485731985375 13.524612423210852 0 0 0
288 1 31.260287233592077 14.90817407851785 6.808719393527901 0 0 0
289 1 0.04157880686221536 0.022621450479194873 10.769978168034656 0 0 0
292 1 2.7507782553102498 2.7816589426343685 10.938167981063545 0 0 0
293 1 1.3853553976850954 1.310410251226074 12.153075011768822 0 0 0
297 1 5.410214605880027 0.03476023023118869 10.863668101053719 0 0 0
300 1 8.155983474282742 2.703162867926541 10.880101134081398 0 0 0
301 1 6.791746920072231 1.333676574514266 12.205215095992411 0 0 0
308 1 13.598695732513152 2.6489073556550546 10.823075122779438 0 0 0
309 1 12.192823146619679 1.3571235828686072 12.268108631770474 0 0 0
317 1 17.581878183051412 1.4202260604006882 12.23356354450278 0 0 0
316 1 19.122059447771324 2.7161314280586177 10.895169376421466 0 0 0
321 1 21.75276704900457 -0.029457376305024305 10.921010178335102 0 0 0
325 1 23.25353966520893 1.3826125465438055 12.130014306210382 0 0 0
324 1 24.625254463409433 2.790981582508926 10.84005878522576 0 0 0
390 1 1.3903028491449558 14.939380904745473 14.876279639125363 0 0 0
333 1 28.571172058758066 1.2143539923096693 12.149683414051768 0 0 0
332 1 29.93389319977349 2.722775027919509 10.892231094273907 0 0 0
296 1 4.241702416484041 4.102795430098359 12.233351150048767 0 0 0
345 1 5.480118231637202 5.375976534884602 10.752757860469442 0 0 0
304 1 9.507092912589371 4.040108137843246 12.223705002923483 0 0 0
353 1 10.88396208298692 5.463053971760276 10.935068230837473 0 0 0
312 1 14.881472955457095 4.185773569848215 12.153012723142924 0 0 0
361 1 16.309032431725235 5.489143018608133 10.864061206324541 0 0 0
320 1 20.524479790996637 3.991721755797861 12.195508368350069 0 0 0
369 1 21.782240595414404 5.4786035508383355 10.875878292042561 0 0 0
328 1 25.989526081915002 4.118614117375941 12.329553310391377 0 0 0
377 1 27.223708678188903 5.503094238592676 10.906623650468472 0 0 0
337 1 32.576949461287576 5.3490759095425755 10.9389724200067 -1 0 0
336 1 31.190440151924403 3.9377068088732705 12.309148500213974 0 0 0
340 1 2.7507268627397212 8.205545087764236 10.900090009682472 0 0 0
341 1 1.3280928674192702 6.822639629329285 12.190076670430834 0 0 0
344 1 4.171314270269541 9.462755241836037 12.241591886912108 0 0 0
348 1 8.089613625010548 8.019159153275364 10.848567676429067 0 0 0
349 1 6.791599677523498 6.6572575534966125 12.280585327736969 0 0 0
352 1 9.407364633677458 9.391068200015305 12.27646130703018 0 0 0
356 1 13.590563454578671 8.198683298773796 10.848823976309786 0 0 0
357 1 12.24872195646741 6.833093485268435 12.221773167768903 0 0 0
360 1 14.847779302215232 9.456355990426358 12.352342171908552 0 0 0
365 1 17.641119940161136 6.728176507107365 12.262380527927222 0 0 0
364 1 18.969513486777334 8.187785211147599 10.862800925300956 0 0 0
368 1 20.3703109117513 9.53936308272506 12.166390288744012 0 0 0
373 1 23.073414193393745 6.820220918996816 12.23471227692515 0 0 0
372 1 24.46636648751366 8.10209565966809 10.812408122345573 0 0 0
376 1 25.735036649643003 9.460216166899869 12.221613557930246 0 0 0
381 1 28.5748942152926 6.86092094498061 12.222255767843917 0 0 0
380 1 29.746196721760096 8.057421399706117 10.81514250985663 0 0 0
384 1 31.180140375661512 9.45829389705071 12.199163045255647 0 0 0
385 1 0.01650627264018771 10.799625049683122 10.948342639160185 0 0 0
389 1 1.4863567477334354 12.10793897738581 12.262298851066571 0 0 0
393 1 5.565284845624669 10.825338144278682 10.73977254884386 0 0 0
397 1 6.847140464129247 12.239774866010416 12.068466867865531 0 0 0
401 1 10.771678981635837 10.828278052132777 10.829548688767172 0 0 0
405 1 12.165511893786988 12.199324974118417 12.259360685865744 0 0 0
409 1 16.08102960957092 10.712119150384178 10.856714856427784 0 0 0
413 1 17.621064258147566 12.149945662100764 12.104589216292872 0 0 0
417 1 21.757093996358712 10.978406013200525 10.832593418885557 0 0 0
421 1 23.0943161666014 12.105550302758354 12.327218828228615 0 0 0
425 1 27.26077295193414 10.914388492957793 10.985286687389502 0 0 0
429 1 28.60594885045144 12.24861497300789 12.261143509038325 0 0 0
1153 1 0.03219268106509351 16.18592114363561 10.855389267420966 0 0 0
388 1 2.6743440703853962 13.455079393960538 10.867831950989368 0 0 0
1161 1 5.436425755307392 16.246089503183715 10.81172069327936 0 0 0
392 1 4.065218245485125 14.900440168912178 12.156362267236993 0 0 0
396 1 8.198839078003452 13.616319402280396 10.825396123083301 0 0 0
427 1 29.899069764052513 10.820484626681916 13.689697660773927 0 0 0
400 1 9.517191766526214 14.992163325307105 12.211012604385415 0 0 0
404 1 13.574925195116032 13.77938233737327 10.947070295818277 0 0 0
431 1 31.231159588084218 12.258377433353278 15.027399629877724 0 0 0
408 1 15.055368383202552 14.971423291550442 12.270538026930351 0 0 0
412 1 19.02725231697266 13.59985153068229 10.802620305121009 0 0 0
416 1 20.301595479800408 14.897550789129962 12.307130192773153 0 0 0
420 1 24.395167136434516 13.480637462132043 10.960502864537599 0 0 0
424 1 25.750407678808855 14.920910721269562 12.255031766720329 0 0 0
1193 1 27.11752705819992 16.17253193331107 10.842813041889581 0 0 0
428 1 29.97148250055613 13.621555674006451 10.818324551503043 0 0 0
432 1 31.217351093967096 14.94102097592297 12.23091935666708 0 0 0
290 1 -0.003447084775172432 2.6081458268314903 13.522453946982308 0 0 0
419 1 24.533666970182793 10.85534624213498 13.704385517044841 0 0 0
436 1 2.736002183790447 2.594862074390865 16.265019404554454 0 0 0
295 1 4.148004187711435 1.2672765765048837 14.959743106901454 0 0 0
298 1 5.4347773225555045 2.7489782455866845 13.593484328442885 0 0 0
891 1 18.96252281072009 16.191420354217087 2.5549763597160147 0 0 0
303 1 9.47728164111965 1.3382169527897574 14.992441627327537 0 0 0
306 1 10.861995128468926 2.7162790528723533 13.683101307191562 0 0 0
423 1 25.9898372847268 12.292311571016585 14.984878652186518 0 0 0
415 1 20.26300729353972 12.218554032973012 14.883475518081049 0 0 0
311 1 14.97813264282505 1.3262271042336358 14.813339174305957 0 0 0
314 1 16.303253878205872 2.923690366387036 13.549748057466763 0 0 0
315 1 18.974184388165693 0.022644626760792277 13.6217322496286 0 0 0
319 1 20.353178326761284 1.279402251137044 14.97084531580723 0 0 0
322 1 21.817258260796105 2.6024045783123277 13.58232667663299 0 0 0
323 1 24.530667038420674 0.07570319254994526 13.562906321378478 0 0 0
327 1 25.87620909815291 1.3876402630704794 14.998285912352456 0 0 0
330 1 27.252278975260836 2.6808631030313674 13.547998005787058 0 0 0
411 1 18.951963125066808 10.804722180788895 13.51611552813107 0 0 0
335 1 31.28885256547597 1.2929366360915513 14.9438673621414 0 0 0
476 1 29.89004682327809 2.6507612417648474 16.219916639702742 0 0 0
294 1 1.4384470953883524 3.9279575222978975 14.823610685466825 0 0 0
339 1 2.7222222246018095 5.396361400740801 13.570144472174233 0 0 0
481 1 0.10335174854368884 5.307227805936158 16.066434104853258 0 0 0
302 1 6.702662613863438 4.084593645360387 15.007352667320099 0 0 0
347 1 8.140156870225468 5.332859198888563 13.69787033826856 0 0 0
310 1 12.281060992210135 4.008019718856931 14.907871316555044 0 0 0
355 1 13.509300575967812 5.542390733151221 13.655315525197745 0 0 0
318 1 17.75245740659678 4.170946242326149 14.876407570131198 0 0 0
363 1 19.05920356517431 5.392989233876158 13.522735413318467 0 0 0
326 1 23.15834298345772 3.9894675942395645 15.00869269448181 0 0 0
371 1 24.49254706210489 5.452067901658464 13.58506859363001 0 0 0
334 1 28.509963248873767 4.033691307422066 14.950592971075764 0 0 0
407 1 14.887902806588105 12.145476470101508 15.018956790311252 0 0 0
379 1 29.819999633966777 5.417027719608628 13.529100508115585 0 0 0
342 1 1.313156772582117 9.503109590205952 14.95250655033893 0 0 0
343 1 4.012991105667746 6.8581631899248405 14.950558546042739 0 0 0
346 1 5.486420241412638 8.202169094593529 13.633853258860194 0 0 0
350 1 6.796858134940581 9.605648760045703 15.02487809128833 0 0 0
351 1 9.505866787718885 6.684929776642409 14.978915328894507 0 0 0
354 1 10.783617493503193 8.168590281192829 13.588678826429497 0 0 0
358 1 12.12780950093601 9.480567824478998 14.985833801296838 0 0 0
403 1 13.549814526933257 10.784106418336922 13.616215506476621 0 0 0
359 1 14.983089847582052 6.808635531728984 14.997587184435432 0 0 0
362 1 16.34520933348804 8.065895502811292 13.625823579392897 0 0 0
366 1 17.670801146338963 9.397350182583182 14.946198378513772 0 0 0
367 1 20.43385077502736 6.682620252427545 14.873459308725899 0 0 0
508 1 19.108130517368956 8.01492057796381 16.24712027472345 0 0 0
370 1 21.67387840574771 8.202443474634066 13.46039310512253 0 0 0
374 1 22.969950050143254 9.506873331980966 14.808268108925542 0 0 0
375 1 25.729011398643323 6.8322094826571655 14.988834177545623 0 0 0
378 1 27.1654651258089 8.165761267653846 13.615723130763868 0 0 0
382 1 28.480954982745235 9.46546989188116 14.983292297690493 0 0 0
338 1 32.583510841066555 8.155062647796031 13.605421937694018 -1 0 0
383 1 31.167897537338447 6.787598003078816 14.849189156084043 0 0 0
545 1 10.803467449862454 10.867004819798352 16.256291845588635 0 0 0
387 1 2.6994182483309563 10.790305740139482 13.629675543972477 0 0 0
529 1 -0.02155176385728438 10.875417795008653 16.278922627922352 0 0 0
391 1 4.025758137060333 12.30153022643107 14.8664008931406 0 0 0
395 1 8.084709021629122 10.817161991332338 13.546214552146239 0 0 0
399 1 9.431186160489938 12.316066867744675 14.879190240801758 0 0 0
460 1 19.157320070844946 2.789838804500764 16.227652377163786 0 0 0
140 1 29.8190507629273 13.562522036642525 0.0567768209210584 0 0 0
492 1 8.13486352979038 8.168049576003666 16.268885853247063 0 0 0
561 1 21.614287159673516 10.82663915685964 16.215744586218037 0 0 0
540 1 8.061068461339959 13.760940852564845 16.234228623469892 0 0 0
132 1 24.591272663450173 13.619848915972 0.0008683610832846966 0 0 0
28 1 18.99786247773306 2.5933104670822678 0.04624691012913473 0 0 0
49 1 0.02500163179773928 5.4302620559197745 -0.032387929077955846 0 0 0
73 1 16.245355451363814 5.3993110845656345 0.032996721434862764 0 0 0
457 1 16.336320615372514 -0.029819102495167726 16.21469877365091 0 0 0
89 1 27.16010128911676 5.441974767211585 -0.022041936275215335 0 0 0
76 1 18.96167769128121 8.121189987698923 -0.027619817042783268 0 0 0
129 1 21.755051975689128 10.884029548947368 0.0035976667466215417 0 0 0
434 1 -0.005222806561441186 2.7107988984478233 18.897895826344403 0 0 0
435 1 2.703210752506717 0.0024118436436405097 18.999185546857703 0 0 0
437 1 1.3058523556518487 1.2818847833128917 17.64776930142956 0 0 0
442 1 5.509148913579783 2.63839776590003 19.17787534969152 0 0 0
443 1 8.211749534664557 0.04224634447216318 19.104213433311024 0 0 0
445 1 6.826528060497629 1.362318172274713 17.749137572496718 0 0 0
450 1 10.836029057546202 2.6569844684222645 19.076713618512894 0 0 0
453 1 12.194412233843833 1.2798753533020124 17.640627510308832 0 0 0
458 1 16.214707526405224 2.6412275537095704 18.976056016678157 0 0 0
461 1 17.687659819881894 1.4219116275281924 17.492384797109466 0 0 0
1595 1 8.230894095816867 16.264675770788504 29.887290179465737 0 0 0
465 1 21.729752207423775 0.03415119514218633 16.356510115061162 0 0 0
466 1 21.746025361673762 2.5753498554299634 19.030811916853658 0 0 0
469 1 23.146937224328592 1.252091634056239 17.702787991934706 0 0 0
467 1 24.508578538920577 -0.020129329545240125 19.106969644294626 0 0 0
468 1 24.459683064474394 2.5775861765224914 16.36785952379124 0 0 0