LAMMPS data file via write_data, version 19 Nov 2024, timestep = 60000, units = metal

1728 atoms
1 atom types

-0.01694400312844735 32.59694400312911 xlo xhi
-0.01694400312844735 32.59694400312911 ylo yhi
-0.01694400312844735 32.59694400312911 zlo zhi

Atom Type Labels

1 Si

Masses

1 28.0855

Atoms # atomic

1 1 32.564500707092506 32.515217563230514 0.015244906305314975 -1 -1 0
2 1 32.54613586499294 2.7481189256979994 2.6757682215486516 -1 0 0
3 1 2.633052709983619 32.548104831704386 2.7091179398617564 0 -1 0
4 1 2.7421024540788896 2.686200775110679 0.02502280022331092 0 0 0
5 1 1.277647731201942 1.3721000775356829 1.3267976798011143 0 0 0
10 1 5.341654006664711 2.6138208457149528 2.6970162006939224 0 0 0
13 1 6.754568767922531 1.2750561181581914 1.3392331660286616 0 0 0
18 1 10.784451010227528 2.6962139408363512 2.69316931124871 0 0 0
19 1 13.60086560634031 -0.013878227151593446 2.646988207083376 0 0 0
20 1 13.721100749773244 2.7437312118151764 0.013771744368697674 0 0 0
21 1 12.216704610744207 1.3387304758988874 1.3053476466480096 0 0 0
26 1 16.308035322917423 2.7738809899176964 2.7011658251240522 0 0 0
29 1 17.688636320863857 1.335297935860869 1.3790908737837557 0 0 0
27 1 19.01731220264225 32.59404984128253 2.7761526529608815 0 -1 0
28 1 18.94627627974241 2.6509049540422844 0.04449637895568708 0 0 0
34 1 21.76254240486167 2.6744644341824633 2.6705865961791706 0 0 0
37 1 22.975290705353782 1.3071199060311318 1.3111923577686844 0 0 0
35 1 24.395925523020367 32.565072636482846 2.6997237779339804 0 -1 0
42 1 27.13710036136042 2.689641823969199 2.5965699926005046 0 0 0
45 1 28.54707841621453 1.3424863876257533 1.2974630547189876 0 0 0
43 1 29.84897257863842 32.59539766541256 2.7004727586882984 0 -1 0
619 1 29.874261535838098 0.08773137491764516 13.599911518585998 0 0 0
51 1 2.676674580689017 5.430578310248286 2.5982175669387595 0 0 0
8 1 4.109638850230172 4.040156950468511 1.3588182241797375 0 0 0
59 1 8.116506679516972 5.348799513115556 2.6739730410530558 0 0 0
16 1 9.417399883280362 3.979450142641601 1.3447514811563228 0 0 0
65 1 10.874863865454707 5.369041380212258 0.10182506211456242 0 0 0
67 1 13.547320420944889 5.386904959120503 2.909865943340613 0 0 0
24 1 15.044765849512407 4.151249749793486 1.3918653905276182 0 0 0
73 1 16.29089882770676 5.550606101561662 0.02426050806425252 0 0 0
32 1 20.408728507579063 4.034663482952079 1.3521045969090613 0 0 0
75 1 19.007233296129705 5.40140350866726 2.742026774960825 0 0 0
81 1 21.771131337071314 5.351221109576693 0.007263729117798373 0 0 0
40 1 25.781855162125414 3.994213766606802 1.2760470453687072 0 0 0
83 1 24.4732705246965 5.377815725582779 2.699759438224362 0 0 0
905 1 27.1097918677126 0.07032041925904053 16.269920036889335 0 0 0
48 1 31.267886910568045 4.177008299747314 1.2365222542460368 0 0 0
91 1 29.859534924002922 5.433861336936515 2.707934873113455 0 0 0
53 1 1.3756146142426338 6.871186559065536 1.2535020869691362 0 0 0
58 1 5.334236490043612 8.291445959507355 2.7483491138369307 0 0 0
60 1 8.08647317840657 8.16611451586594 0.022615202666377513 0 0 0
61 1 6.754172334475927 6.804089571515708 1.4582807160172897 0 0 0
66 1 10.801700787310851 8.211624269184236 2.7795094128819713 0 0 0
68 1 13.542979350706334 8.087376329047387 0.09036126985052297 0 0 0
69 1 12.220451926025897 6.800281156285163 1.5416626180504622 0 0 0
74 1 16.319339969656625 8.055272160183216 2.7802521416767862 0 0 0
77 1 17.756507642291073 6.809126288253691 1.3688288686933623 0 0 0
858 1 27.09695816632086 29.96105596229667 13.706139586140246 0 0 0
82 1 21.79987884665541 8.17890263702937 2.7064750391262185 0 0 0
85 1 23.116702547356418 6.75806729276111 1.3438813511506906 0 0 0
90 1 27.09439753468063 8.129041162793506 2.697681198477974 0 0 0
93 1 28.485729727484816 6.718386247251944 1.2122398634730875 0 0 0
50 1 32.56478315623542 8.19366707869062 2.5804884845675047 -1 0 0
99 1 2.6409919406197586 10.865357532344209 2.800617940297759 0 0 0
56 1 4.01614064228506 9.608985417464027 1.2914211984380473 0 0 0
862 1 28.536996594960247 31.372114880948153 15.003046853239903 0 0 0
107 1 8.178236077071272 10.888705435455243 2.608753349005526 0 0 0
64 1 9.47183902015754 9.507519294761913 1.341255063862786 0 0 0
611 1 24.41501445212353 32.59020026403729 13.56299613946921 0 -1 0
115 1 13.602895508316664 10.800804137001682 2.7186764684021756 0 0 0
72 1 15.020344187351192 9.399035738796888 1.4057755134136163 0 0 0
121 1 16.3167347307386 10.8505572882284 -0.007082559210935195 0 0 0
80 1 20.350700168511676 9.459812849967594 1.2629229776169006 0 0 0
123 1 18.98331897091165 10.801664662413641 2.6771618018524634 0 0 0
129 1 21.836363904907518 10.856243752956216 -0.001578714628937839 0 0 0
88 1 25.809269455018306 9.493977375597934 1.2613412515158844 0 0 0
131 1 24.419829491021865 10.851614987535479 2.6731626066910104 0 0 0
137 1 27.201661870419937 10.879017231347829 -0.008620890711077842 0 0 0
96 1 31.23651791279818 9.492913948528386 1.1730363513526558 0 0 0
139 1 29.85228331517725 10.797677771403063 2.5767599414949323 0 0 0
98 1 32.587579119201145 13.530485106259414 2.6244743049077535 -1 0 0
101 1 1.403087362928953 12.133699805603076 1.3725021253829706 0 0 0
106 1 5.428595583876952 13.559681772149156 2.5749509473639907 0 0 0
109 1 6.747054902269649 12.152544768127 1.2740518927746074 0 0 0
114 1 10.936093176315053 13.599958713784057 2.784457973267409 0 0 0
116 1 13.64226882082411 13.520113818565118 0.04314362173255746 0 0 0
117 1 12.198292733942099 12.220360533708165 1.362656322390722 0 0 0
122 1 16.26759519878243 13.488550461682108 2.7673499337166128 0 0 0
125 1 17.70173575380471 12.225576896962215 1.3268535394467516 0 0 0
130 1 21.765764577474155 13.610706052163842 2.7947587607530053 0 0 0
133 1 23.10319120048058 12.341064441743397 1.3531593195102658 0 0 0
138 1 27.176750500258436 13.622232161762247 2.66703812774826 0 0 0
141 1 28.525166588800904 12.24031328130659 1.313642113582315 0 0 0
147 1 2.7269722944745554 16.25536890825275 2.725905522625711 0 0 0
149 1 1.3865515234625367 17.5978826402914 1.3166667500042015 0 0 0
104 1 3.9996943664738516 14.94963314263768 1.3017803148122014 0 0 0
155 1 8.118267977867664 16.36379491960809 2.5414443756231075 0 0 0
157 1 6.695163737412521 17.720699383860605 1.257600336138059 0 0 0
112 1 9.563086363793492 14.901107601024737 1.320708297846594 0 0 0
850 1 21.697489408380836 29.929712630099697 13.603055526882144 0 0 0
163 1 13.6588368864885 16.316805497694606 2.6642997500549366 0 0 0
165 1 12.245337907133372 17.661866503901194 1.3772528594717506 0 0 0
120 1 15.02755889367337 14.841316838198251 1.3142845397436385 0 0 0
854 1 23.08038287679467 31.282314570103985 14.979599995463493 0 0 0
173 1 17.62567426870771 17.582178872836554 1.3880997603551826 0 0 0
128 1 20.400401850267286 14.893379289572898 1.354657684361767 0 0 0
171 1 18.989744762546177 16.244655764025527 2.6298296366637928 0 0 0
1132 1 18.915709019364495 29.880923446612037 16.25759962029836 0 0 0
181 1 23.05101570825196 17.762580035957424 1.2659836457221085 0 0 0
136 1 25.86715690733415 15.000482060319383 1.363738534770138 0 0 0
179 1 24.35680192437423 16.332918167662786 2.602003864093001 0 0 0
842 1 16.30523366262724 29.92540965996415 13.477371682783515 0 0 0
189 1 28.509013111508924 17.650540305472635 1.3234785094084147 0 0 0
846 1 17.70019938533741 31.274486583472765 14.948190476033462 0 0 0
144 1 31.20023431458102 14.909733640620729 1.3178191166543975 0 0 0
187 1 29.802081959231185 16.28002672550553 2.644876182903122 0 0 0
838 1 12.327690095234464 31.297787902424147 14.993169517462643 0 0 0
152 1 3.971589082047559 20.357447596293326 1.3068486068041272 0 0 0
154 1 5.361488170634563 19.048795316290597 2.710285119561406 0 0 0
160 1 9.512651077507492 20.373900512115352 1.3096152239927261 0 0 0
162 1 10.82444881197402 19.009330862576302 2.715283190965115 0 0 0
834 1 11.018295355858468 29.954841939971953 13.518231882805061 0 0 0
168 1 14.932651938663096 20.28289230778179 1.3488027765548298 0 0 0
170 1 16.277851220292675 18.951268467288152 2.745768233135939 0 0 0
830 1 6.799300948551418 31.156009916975236 14.886423865192 0 0 0
176 1 20.27893595117786 20.39236395980192 1.3214322492225097 0 0 0
178 1 21.670142225643268 19.075934099854983 2.659876086860698 0 0 0
826 1 5.367898871351202 29.78007387224062 13.519386934379302 0 0 0
184 1 25.848113428904984 20.380502465325705 1.2946387291315067 0 0 0
186 1 27.114739868066064 18.993097838244168 2.7030375770834496 0 0 0
146 1 0.0493068282895095 18.958398474789202 2.730752748893902 0 0 0
192 1 31.25803236021102 20.29872493451542 1.3474645759724084 0 0 0
195 1 2.728588052756974 21.738060942212517 2.8033565603196724 0 0 0
197 1 1.4134234550699807 23.177320541892534 1.395881727338954 0 0 0
818 1 32.57607357767804 29.94975733751802 13.527577614694946 -1 0 0
203 1 8.1672346929156 21.66526900492383 2.670006315647238 0 0 0
205 1 6.907057201971217 23.126310310359468 1.3095908659785644 0 0 0
211 1 13.619709158437542 21.65987385093976 2.711063500446905 0 0 0
213 1 12.208664135673313 23.034402939869285 1.3900392910449284 0 0 0
217 1 16.290681821583423 21.692788387643883 0.05058648249226437 0 0 0
221 1 17.651461689885856 23.04010870125074 1.38895596234427 0 0 0
219 1 19.061653496542142 21.70292681816117 2.746775632570578 0 0 0
229 1 23.043640166514976 23.13027554617175 1.2483476745306035 0 0 0
227 1 24.38955565536152 21.72654352955411 2.6220803419983865 0 0 0
237 1 28.541367370162835 22.96509509069024 1.2764917728354312 0 0 0
235 1 29.892799305161628 21.686502819849835 2.713218294377581 0 0 0
200 1 4.042353353066259 25.883073234797106 1.3695327945127012 0 0 0
202 1 5.499341769321659 24.538436241679605 2.635018009024802 0 0 0
822 1 1.3801390847083856 31.200626860270987 14.958281839740307 0 0 0
208 1 9.565735369522745 25.752799805919842 1.346076627055709 0 0 0
210 1 10.866798747227872 24.39732220515733 2.795104534206221 0 0 0
212 1 13.62116716146146 24.332939311941956 0.01890043116806904 0 0 0
216 1 14.942482579981064 25.798008591625972 1.3567312926816084 0 0 0
218 1 16.32737851830912 24.422267229467693 2.68861825207417 0 0 0
224 1 20.364794652209152 25.801433860113626 1.350904821367875 0 0 0
226 1 21.702300754673573 24.453640289046206 2.678951660854177 0 0 0
859 1 29.9336562912539 27.193849969065127 13.65069482580005 0 0 0
232 1 25.89548870872899 25.73028748765626 1.264885062674176 0 0 0
234 1 27.231454727740296 24.32583602948837 2.61868152507928 0 0 0
194 1 0.02375827921139262 24.48526787636953 2.691786601556197 0 0 0
863 1 31.2961819814303 28.604940766982576 14.972726820919489 0 0 0
240 1 31.25508351069941 25.834615721488177 1.3132385660706725 0 0 0
243 1 2.669372875257885 27.258028632675195 2.7008888100824744 0 0 0
245 1 1.2557896812031593 28.54574785693122 1.4278845782446643 0 0 0
249 1 5.395149601144676 27.147018796540703 0.007083208892309744 0 0 0
251 1 8.170562489122277 27.127959685506752 2.6681618878732976 0 0 0
253 1 6.80956384787166 28.499997587139006 1.3554500659910098 0 0 0
851 1 24.456031354529095 27.189993939332 13.578632518801708 0 0 0
259 1 13.557648967553886 27.189079744181747 2.7120256439906654 0 0 0
261 1 12.257109439136796 28.585584135945382 1.3343180506772687 0 0 0
269 1 17.74641116558584 28.597215769860085 1.3843742886182264 0 0 0
267 1 18.985396026672987 27.069252397860662 2.775160420844623 0 0 0
273 1 21.74530972355067 27.12924834203115 0.07156871909681058 0 0 0
277 1 23.16119775301419 28.49290351679281 1.3846054776275005 0 0 0
275 1 24.51190370833842 27.108212463805717 2.6569723667993346 0 0 0
285 1 28.562033919337342 28.52660998382184 1.3335858430246235 0 0 0
283 1 29.940335221685825 27.147691594530613 2.6511708359917208 0 0 0
244 1 2.5580916057316108 29.787783946536905 0.026050104901438647 0 0 0
9 1 5.357490746635128 32.57315536026993 0.01982246072734719 0 -1 0
248 1 3.971285220819747 31.09024644927575 1.3686058537198507 0 0 0
250 1 5.3565633687211305 29.845358035353616 2.714493795812347 0 0 0
11 1 8.07996181202045 0.025977309791336722 2.7442850325917085 0 0 0
17 1 10.926796888057341 0.021960473383281 -0.013437143069737409 0 0 0
256 1 9.538021899390396 31.347098453650755 1.3510925329273304 0 0 0
258 1 10.8818805218731 29.933705239308264 2.6485752305567094 0 0 0
855 1 25.762026495453405 28.54971131554562 15.055165397685613 0 0 0
264 1 15.00732022939902 31.264419497421702 1.296689868677568 0 0 0
266 1 16.309975281532186 29.92038846763459 2.7059671400697964 0 0 0
272 1 20.401049209961965 31.236050309617383 1.34620626351344 0 0 0
274 1 21.80256976094874 29.89250832231675 2.696688969543855 0 0 0
1137 1 21.716506032797422 27.149054245639437 16.2065456699361 0 0 0
280 1 25.825012099709593 31.268743076276944 1.3658031258430972 0 0 0
282 1 27.13473133515765 29.795620602299447 2.616796404896789 0 0 0
242 1 32.50080546785716 29.84282092327821 2.695949342880983 -1 0 0
843 1 18.999951945145888 27.165916823743082 13.579770656716144 0 0 0
288 1 31.140167884944226 31.225420452085924 1.3394332810853045 0 0 0
289 1 32.51949542622031 32.55233813594452 5.356755374152429 -1 -1 0
292 1 2.6353769619818714 2.665733677222809 5.392823300042572 0 0 0
7 1 3.9811968982897206 1.2358514263922311 4.0552544730330435 0 0 0
297 1 5.387126280192496 32.55641527720129 5.418280119604734 0 -1 0
300 1 8.076799033674977 2.6282123740233403 5.451697656382414 0 0 0
15 1 9.490271100966401 1.367484921920615 4.094535160008911 0 0 0
308 1 13.522663357029954 2.6920194167998637 5.431976485817969 0 0 0
23 1 14.938944120328465 1.3828072092622168 4.042988083017496 0 0 0
313 1 16.34759934145328 0.07808075600051646 5.329071713344262 0 0 0
31 1 20.397327922375787 1.384509273556664 4.055147264866809 0 0 0
316 1 19.01540574134477 2.6979078983949525 5.4203922836502505 0 0 0
39 1 25.765494785979396 1.3313412207547 4.0005860866439225 0 0 0
324 1 24.473927495600716 2.7114072667390627 5.450183002909112 0 0 0
329 1 27.122447972688136 0.0044976309900874 5.364765902621542 0 0 0
47 1 31.195008162718825 1.3113247792710625 4.046212663426838 0 0 0
332 1 29.856611294385992 2.749270491415596 5.3952379858735835 0 0 0
6 1 1.353435030437352 4.158955579189925 4.005786060999726 0 0 0
337 1 32.59603165516766 5.5099214091458135 5.381692207852872 -1 0 0
345 1 5.3299495011356095 5.460370033572952 5.291810539383183 0 0 0
14 1 6.6617613206487185 3.9914267217728385 4.092850353730041 0 0 0
353 1 10.827001584947244 5.401021959810564 5.453045174174024 0 0 0
22 1 12.148462969112241 4.0660510557773 4.141285317737135 0 0 0
30 1 17.65383444959257 4.145730206918006 4.105259775233269 0 0 0
361 1 16.339519490314768 5.365013988427599 5.554088010725676 0 0 0
38 1 23.116759740904325 4.036077101650531 4.069215293142696 0 0 0
369 1 21.674656645569495 5.358415229343192 5.36573714883165 0 0 0
46 1 28.474007279912513 4.058056423502378 3.950617861346778 0 0 0
377 1 27.154118015560464 5.425756227932141 5.334811455231466 0 0 0
340 1 2.591380971435661 8.106387002193417 5.434795976250949 0 0 0
55 1 3.972848969856024 6.800610435887157 4.0130715104279835 0 0 0
348 1 8.032276887699433 8.179943293916065 5.400413727480318 0 0 0
63 1 9.413088651390662 6.735487378496384 4.081042440738032 0 0 0
356 1 13.612972806284555 8.152126386609373 5.487596326387044 0 0 0
71 1 14.964185359802554 6.648815326049097 4.2117916531781106 0 0 0
79 1 20.389904543858492 6.789881529810037 4.055788095922695 0 0 0
364 1 18.997139323160884 8.059051252686587 5.524603914834614 0 0 0
87 1 25.772364191833702 6.79958924666994 4.049195515082967 0 0 0
372 1 24.438207040107553 8.178700967839678 5.351457857013222 0 0 0
95 1 31.272716465256003 6.836941701529078 4.006657659439967 0 0 0
380 1 29.941122566264482 8.196380299701605 5.322114416610048 0 0 0
54 1 1.2041808369842184 9.476020817716009 4.102867604549734 0 0 0
385 1 32.54837264156812 10.819501764525768 5.505302292896355 -1 0 0
393 1 5.373730823719443 10.863148072727412 5.321656817257345 0 0 0
62 1 6.779110537070824 9.550034562596032 4.0365277975767695 0 0 0
401 1 10.943876562790566 10.90868409156749 5.462022780753921 0 0 0
70 1 12.253333884508512 9.510336548282826 4.095064045695607 0 0 0
78 1 17.718777933739844 9.459903197413553 4.165577726760551 0 0 0
409 1 16.288450950116744 10.842243496489493 5.495747765743434 0 0 0
86 1 23.11588470388445 9.508892138930578 3.9931612035459163 0 0 0
417 1 21.631846734570843 10.775944357004223 5.363443481230319 0 0 0
94 1 28.46242254897227 9.526148055778297 3.975179399280401 0 0 0
425 1 27.161365787300998 10.804504065731955 5.3972436277657945 0 0 0
388 1 2.6881828658794524 13.534597006672852 5.444043716454262 0 0 0
103 1 4.041684423508358 12.29260913327338 3.9549051050251642 0 0 0
396 1 8.16801924021808 13.66449622267318 5.45905789990559 0 0 0
111 1 9.486642376496826 12.235393740314498 4.17370597960337 0 0 0
404 1 13.544986214288372 13.609110490201418 5.473157686278798 0 0 0
119 1 14.943211618725174 12.17812722443272 4.22296064573294 0 0 0
127 1 20.363190815527766 12.166163407635725 3.9532305379426815 0 0 0
412 1 18.96654650588854 13.528053153527653 5.3330295062661754 0 0 0
135 1 25.865739160289632 12.186736024934659 4.007137497946411 0 0 0
420 1 24.389157105241903 13.492795285139255 5.414564321069236 0 0 0
143 1 31.23807333732538 12.08914128086532 3.9871719139115545 0 0 0
428 1 29.907428814141042 13.490750927181974 5.362245555861178 0 0 0
102 1 1.315615689270406 14.863878893766849 4.10626954905234 0 0 0
151 1 3.9760914244981285 17.681026911496172 4.032761803477612 0 0 0
441 1 5.442908178891893 16.258336363212845 5.334549669213456 0 0 0
110 1 6.854241026766962 14.98439865232643 4.004806262071482 0 0 0
159 1 9.566431955430657 17.585217911991005 4.026922577759549 0 0 0
449 1 10.905986995280712 16.32203066050046 5.414335793843157 0 0 0
118 1 12.274837596517747 14.987487535079923 4.042044937672077 0 0 0
126 1 17.62471522971916 14.912671671670205 4.043001601641037 0 0 0
167 1 14.985306725008995 17.695065875183293 4.058561808327776 0 0 0
457 1 16.284846441284852 16.209471670244756 5.481462507366615 0 0 0
175 1 20.39187850743721 17.630626364261328 4.055992528556493 0 0 0
134 1 23.103941365564516 14.987225072660053 4.136880144083135 0 0 0
465 1 21.73399178277578 16.2609446835176 5.417468468090283 0 0 0
183 1 25.725531401310118 17.685183813541514 4.065879784937506 0 0 0
142 1 28.46679080641598 14.861250542304669 4.080362051109058 0 0 0
473 1 27.10531929463265 16.28693038730879 5.446893791731368 0 0 0
433 1 32.45696219033592 16.182875666576013 5.349389367188029 -1 0 0
191 1 31.15740755246819 17.639275189442788 4.0441554064394705 0 0 0
150 1 1.3377601269545687 20.348722581106752 4.0991759670915195 0 0 0
436 1 2.618668415141141 18.98565983158148 5.498041382769367 0 0 0
158 1 6.736692494404335 20.416432086648957 3.990974500153764 0 0 0
444 1 8.143302567589677 18.999751944003826 5.294417277187003 0 0 0
166 1 12.204215255859856 20.385201657792553 4.071761576651085 0 0 0
452 1 13.562349271165196 19.080762437717535 5.344190060772346 0 0 0
174 1 17.620898754895403 20.36040579245456 4.0670979761032635 0 0 0
460 1 19.00123643818993 19.00656477531554 5.401659471286623 0 0 0
182 1 23.062907975366297 20.471839165887427 4.122593999145611 0 0 0
468 1 24.42079268177971 18.971751690161284 5.460724328314652 0 0 0
190 1 28.526990865955728 20.37322484565779 4.06959614632508 0 0 0
476 1 29.82199003450322 19.003115962204266 5.397249941556894 0 0 0
481 1 -0.0016244906252758558 21.867787210422176 5.321612842571439 0 0 0
199 1 4.1046054947184 23.130761411973907 4.004680071633933 0 0 0
489 1 5.388212043567138 21.715653011196164 5.393818714194554 0 0 0
207 1 9.456578399378367 23.000691992238036 4.137676667294042 0 0 0
497 1 10.91576838824575 21.724536946247845 5.475008205133893 0 0 0
215 1 14.957822189987105 23.027988604844406 4.0702676738496555 0 0 0
505 1 16.276896180148377 21.676667029694748 5.51103027982096 0 0 0
223 1 20.401492792206223 23.08380674088872 4.0658127655360525 0 0 0
513 1 21.742148997533196 21.80310380409401 5.509203182731715 0 0 0
231 1 25.8693204715061 23.01268358455194 4.021103755163195 0 0 0
521 1 27.18199699844852 21.695933519399194 5.425248426509095 0 0 0
239 1 31.308653070104114 23.22261438821287 3.980537097126099 0 0 0
198 1 1.2972439554132158 25.8643771919216 3.987506396929206 0 0 0
484 1 2.6486386343918085 24.523330075999375 5.4137020292531695 0 0 0
206 1 6.780753640185255 25.86318186614794 4.147781363496313 0 0 0
492 1 8.106859243818018 24.467646895052912 5.417191197188188 0 0 0
214 1 12.214875654069216 25.74621364969345 4.124988547551396 0 0 0
500 1 13.59790574970724 24.343378494662886 5.384641385081806 0 0 0
222 1 17.632497337501782 25.66568176978548 4.141503072964762 0 0 0
508 1 19.054023781557603 24.327658991160256 5.451785343623769 0 0 0
230 1 23.137587893050164 25.71867936125439 4.017291726571809 0 0 0
516 1 24.4875458800945 24.34691259884081 5.400739496779858 0 0 0
238 1 28.534611773019325 25.829138516799873 3.988978556987397 0 0 0
524 1 29.86343377301792 24.431657249270515 5.408055671085371 0 0 0
247 1 4.032810271545707 28.54260191912696 4.089789835154149 0 0 0
537 1 5.361555288368778 27.235159381378587 5.448138710030036 0 0 0
255 1 9.512472293365086 28.39807408049074 4.025942183032549 0 0 0
545 1 10.880404320802828 27.178513028298998 5.422348643175317 0 0 0
263 1 14.967200271111068 28.53636122703732 4.051647422512799 0 0 0
553 1 16.323008366621128 27.154725005148975 5.493207979697032 0 0 0
271 1 20.433939787612942 28.530060186927876 4.089117510892597 0 0 0
561 1 21.78502412009635 27.067893190720298 5.4340990934686575 0 0 0
279 1 25.857394216412168 28.430601675800638 4.037430185983541 0 0 0
569 1 27.271780124475278 27.14224622263827 5.433896930008369 0 0 0
529 1 0.01200925015209009 27.14524712866001 5.445381112137783 0 0 0
287 1 31.24514523425678 28.410078998462208 4.047479218358779 0 0 0
246 1 1.2782313557213256 31.175561617070482 4.0953628744621895 0 0 0
532 1 2.7238200899708533 29.926659131912373 5.464605946245099 0 0 0
254 1 6.746677743705677 31.241723364889815 4.0593976513977 0 0 0
540 1 8.101037189444689 29.809411914696483 5.333693044095871 0 0 0
305 1 10.819898080634298 32.557842795071586 5.403370161032215 0 -1 0
262 1 12.203506159373747 31.222694246515488 3.987306020034508 0 0 0
548 1 13.595699726741909 29.911403268453736 5.370955470098367 0 0 0
270 1 17.673804497595388 31.172617437622797 4.099484706035777 0 0 0
556 1 19.064415426158096 29.88029926004308 5.468498782039179 0 0 0
321 1 21.804041749282618 32.54093010492215 5.375070333864548 0 -1 0
278 1 23.08854937258613 31.22538936603332 4.071030195486098 0 0 0
564 1 24.469431193246994 29.849462867387686 5.382532049265692 0 0 0
286 1 28.43105621334179 31.1571872388394 4.095627945468733 0 0 0
572 1 29.890560111756614 29.791405592211753 5.414234011373617 0 0 0
290 1 32.57725049014322 2.7701452674639557 8.166107911366877 -1 0 0
293 1 1.2582284428130193 1.2982319226531074 6.800929191239904 0 0 0
295 1 3.9118986128261133 1.3185151271410267 9.51504407973477 0 0 0
298 1 5.31611590351551 2.6299202084755176 8.200877924178 0 0 0
301 1 6.781619574922556 1.3727197150508834 6.825506528287076 0 0 0
303 1 9.53879031912683 1.3871656805473926 9.480661637566936 0 0 0
306 1 10.832903062418254 2.6826313250253295 8.06565361659616 0 0 0
307 1 13.623776585310573 32.559983942315 8.143174093406572 0 -1 0
309 1 12.212726928411188 1.2739648342984817 6.753243924259309 0 0 0
311 1 14.90591475488253 1.4182719210319505 9.534986703545544 0 0 0
314 1 16.329793117983083 2.752380893834706 8.22782100582086 0 0 0
317 1 17.629839267672125 1.3819206209983108 6.832530119630796 0 0 0
315 1 18.95299672010416 -0.007603424325045772 8.1829429513835 0 0 0
319 1 20.37727138797973 1.395720853703372 9.500200709655159 0 0 0
322 1 21.751229878390216 2.6974594733357296 8.10881086499491 0 0 0
325 1 23.099127595038812 1.3298798389972866 6.743004031352213 0 0 0
323 1 24.471581466064137 0.0022881625671315716 8.11325247832457 0 0 0
327 1 25.773099973058194 1.467862170709605 9.493226043126786 0 0 0
330 1 27.27789596332127 2.7598415591600243 8.187982107585519 0 0 0
333 1 28.516969045786578 1.316942552406286 6.708773664440666 0 0 0
331 1 29.853424706446127 0.06911637834038797 8.11601909267274 0 0 0
335 1 31.257813438288558 1.3893970487315215 9.495519478887864 0 0 0
294 1 1.3992581670682134 4.210115378782914 9.464052886409185 0 0 0
339 1 2.7237041593315876 5.533984675497421 8.042604874201349 0 0 0
296 1 4.032246934162987 4.037393647943914 6.707891343639962 0 0 0
302 1 6.733513052239831 3.996552622091238 9.506878939634356 0 0 0
347 1 8.050432880866822 5.3728527618613935 8.1050122677356 0 0 0
304 1 9.402472170725538 4.01669530297564 6.7477944515914094 0 0 0
310 1 12.161775982446594 3.966368619657726 9.445826263433045 0 0 0
355 1 13.592578566796776 5.330520457379091 8.081202947876957 0 0 0
312 1 14.966137585846642 4.010860498101984 6.798613463527852 0 0 0
318 1 17.750455984450582 4.138116759558496 9.587994690194156 0 0 0
320 1 20.37299279050113 4.027141222363342 6.777807739058845 0 0 0
363 1 19.067671460535777 5.430567579458577 8.217237725494119 0 0 0
326 1 23.12278845717049 4.1427891955405745 9.45646230434536 0 0 0
328 1 25.898595544488344 4.149383797640217 6.810108536814399 0 0 0
371 1 24.44617535649276 5.488905614163188 8.116212464988367 0 0 0
334 1 28.59539944806606 4.1323960874994015 9.438714416578392 0 0 0
336 1 31.246787752821543 4.108991586349765 6.765614009118885 0 0 0
379 1 29.896604476166576 5.560267346301163 8.112960523108573 0 0 0
338 1 32.58130331392331 8.180682224788912 8.203017462163855 -1 0 0
341 1 1.255552333435505 6.82678662074839 6.829058845664076 0 0 0
343 1 4.112204875259483 6.786258029235875 9.527634068127638 0 0 0
346 1 5.398984514478813 8.178081411357802 8.16977605804426 0 0 0
349 1 6.679854595762861 6.823538525482194 6.760201143672948 0 0 0
351 1 9.393000666760448 6.713974973779811 9.445781049115608 0 0 0
354 1 10.865407438571966 8.046070924750893 8.154623998180208 0 0 0
357 1 12.16170443126491 6.744544765999942 6.752909202754925 0 0 0
359 1 14.936509748040997 6.768248603701854 9.519873056485913 0 0 0
362 1 16.354999864047816 8.154287116836313 8.348509826054492 0 0 0
365 1 17.61360183670893 6.727752086474678 6.9312044336836856 0 0 0
367 1 20.435135291787457 6.7996028139018145 9.56741576838942 0 0 0
370 1 21.813227959797306 8.197174955090395 8.134346242370077 0 0 0
373 1 23.11183414036795 6.826195436367152 6.704946901634014 0 0 0
375 1 25.84705516302775 6.8518441454896655 9.48907577550405 0 0 0
378 1 27.181698173984937 8.129298422788532 8.069515248273394 0 0 0
381 1 28.557907203190606 6.841872401904056 6.639775422748649 0 0 0
383 1 31.182019082233747 6.862707419223601 9.501995008575792 0 0 0
342 1 1.3412882864300377 9.529618364363888 9.491787334409013 0 0 0
387 1 2.7974748311616997 10.824909667243624 8.064338845608713 0 0 0
344 1 4.117786529618006 9.418070575630486 6.681049395270831 0 0 0
350 1 6.799515819014046 9.446544433871455 9.514050350783236 0 0 0
395 1 8.164454938840645 10.743505308796548 8.179873697891404 0 0 0
352 1 9.520132463002708 9.468671644186706 6.754821601296482 0 0 0
358 1 12.265132136333328 9.403215605143044 9.495729084887007 0 0 0
403 1 13.508163400754045 10.848028792817964 8.146888563847558 0 0 0
360 1 14.978564176050028 9.487783369156366 6.905318589129717 0 0 0
366 1 17.701909452643683 9.626635908273423 9.575655080372956 0 0 0
368 1 20.35315745175542 9.421426313256212 6.854392126618434 0 0 0
411 1 19.027033935924656 10.878375117043744 8.139143424545852 0 0 0
374 1 23.156009349803906 9.482168733536462 9.50065498146829 0 0 0
376 1 25.802972467118856 9.49062132843758 6.765260550027902 0 0 0
419 1 24.373378907097326 10.896622809704967 8.055153481085627 0 0 0
382 1 28.465684462633703 9.470400385368327 9.516996494129854 0 0 0
384 1 31.2703238258996 9.495314827040554 6.769481792934619 0 0 0
427 1 29.89606377408557 10.842809770619 8.146939416941228 0 0 0
389 1 1.3735756367787806 12.130808033863428 6.803253363524019 0 0 0
391 1 4.123723479060888 12.140441795549803 9.46202803834649 0 0 0
394 1 5.412533086563605 13.549434348821844 8.093722534628938 0 0 0
397 1 6.850907251851096 12.142409294157371 6.773513624989998 0 0 0
399 1 9.542715188225936 12.201317600526918 9.496417964119622 0 0 0
402 1 10.922768221639386 13.661942303646372 8.144611499096875 0 0 0
405 1 12.175412793461138 12.254848395676719 6.856835243487494 0 0 0
407 1 14.866636986771827 12.267315782649224 9.551325112774542 0 0 0
410 1 16.264268884317765 13.562091584461559 8.19162676088785 0 0 0
413 1 17.636685226385424 12.279124412696824 6.791763360052255 0 0 0
415 1 20.451394115143533 12.228666130258016 9.548518572159079 0 0 0
418 1 21.74157780326615 13.610669721547055 8.180701435934257 0 0 0
421 1 22.977798986207254 12.192853792170318 6.808043313948424 0 0 0
423 1 25.79347438584538 12.207583439083715 9.413339717062872 0 0 0
426 1 27.14618093714081 13.54072376084847 8.047123574666331 0 0 0
429 1 28.499069370897484 12.122489551680975 6.731326530655344 0 0 0
386 1 0.013949440245532685 13.471724931786445 8.232363074968694 0 0 0
431 1 31.209883019705984 12.186174201006692 9.532924137197266 0 0 0
390 1 1.4173410112259617 14.894546218119574 9.520281240767602 0 0 0
435 1 2.7325712109132607 16.191788011276756 8.1006330157415 0 0 0
437 1 1.2347598283999832 17.480692465657533 6.768521289702451 0 0 0
392 1 4.0939281989149015 14.848886609801983 6.7357062923777935 0 0 0
439 1 4.048692381584968 17.669022712424177 9.4159065283627 0 0 0
398 1 6.8142703588470805 14.883336663481561 9.503060357802113 0 0 0
443 1 8.192860137506257 16.315032237446133 8.115528411689164 0 0 0
445 1 6.758480475851873 17.67869229778162 6.743433631984692 0 0 0
400 1 9.567015419333808 14.968765495930036 6.7630340101790525 0 0 0
447 1 9.524427084448618 17.750684803455623 9.52794228375307 0 0 0
406 1 12.21807038679997 15.001886829629296 9.50807880768238 0 0 0
451 1 13.568940957860322 16.35749309129636 8.180781992538515 0 0 0
453 1 12.258807247651607 17.709742424094905 6.714902115094446 0 0 0
408 1 14.942711879001678 14.917525787705856 6.867237350244142 0 0 0
414 1 17.621428067113172 14.818111911816642 9.486456707427376 0 0 0
455 1 15.022495147804598 17.63250970992729 9.573477132959818 0 0 0
461 1 17.63369987938126 17.6312824872059 6.821005261343853 0 0 0