LAMMPS data file via write_data, version 19 Nov 2024, timestep = 60100, units = metal

1728 atoms
1 atom types

-0.019323892548609223 32.59932389254769 xlo xhi
-0.019323892548609223 32.59932389254769 ylo yhi
-0.019323892548609223 32.59932389254769 zlo zhi

Atom Type Labels

1 Si

Masses

1 28.0855

Atoms # atomic

2 1 32.504855213283115 2.6489115652513666 2.714586036470698 -1 0 0
1187 1 24.379692394022236 16.281461382566203 13.568352442544473 0 0 0
5 1 1.3108252210141698 1.3126423714394273 1.380562064098368 0 0 0
572 1 29.949838066940142 13.70747665936055 16.233958276238486 0 0 0
10 1 5.489134848455582 2.664772129500511 2.7065471197655326 0 0 0
13 1 6.740011522682085 1.2632791954003926 1.3507021737479523 0 0 0
18 1 10.891001575162337 2.551019108512496 2.5746960826649246 0 0 0
19 1 13.61400558810444 -0.012795478264633193 2.757277727258286 0 0 0
329 1 27.20904447183783 0.05881365555439544 10.934685459058407 0 0 0
21 1 12.270292211027396 1.1928274578753968 1.228484233276645 0 0 0
26 1 16.25380569331726 2.6921451769660414 2.822033760684458 0 0 0
29 1 17.66496383122258 1.3869206273879766 1.3977022912689925 0 0 0
1195 1 29.82068274386305 16.260500927438056 13.52060639212977 0 0 0
34 1 21.640947295169767 2.73109857776911 2.715552687625862 0 0 0
37 1 23.12262047804081 1.3349204486427653 1.4884338589221644 0 0 0
42 1 27.123225023923084 2.6005420538456736 2.7123832861059247 0 0 0
45 1 28.507091846158094 1.3119608464534225 1.3700527300124277 0 0 0
426 1 27.149107345066707 13.59700748599645 13.602616463590483 0 0 0
297 1 5.348798501174931 0.017020763330663158 10.863866489909414 0 0 0
49 1 0.030492167370544315 5.37111186073849 -0.01618773800405497 0 0 0
51 1 2.661064082012654 5.345926444316409 2.672631044789242 0 0 0
8 1 4.0692721544333725 3.9671507189770034 1.3890548420880886 0 0 0
57 1 5.533463624265982 5.338270655197695 0.14269259232690445 0 0 0
59 1 8.25012865639607 5.361044754776653 2.6268365356650487 0 0 0
16 1 9.579491662284672 4.002423140733092 1.2486607617183403 0 0 0
1177 1 16.30096795351795 16.225903661435265 10.859791498540202 0 0 0
67 1 13.592439595465612 5.343862247687664 2.638582666334241 0 0 0
24 1 15.001441735950271 3.9380280579050817 1.3622599567245584 0 0 0
32 1 20.319973271155366 4.0773194483702895 1.3865150377646829 0 0 0
75 1 18.955702791326033 5.420750129475151 2.679966032583566 0 0 0
81 1 21.680492538106847 5.383295095771853 0.030901549218950487 0 0 0
40 1 25.778292700763927 4.053312309157974 1.284092922625923 0 0 0
83 1 24.479381374196468 5.438257446940845 2.608995750102667 0 0 0
48 1 31.186224408192505 4.130169244587797 1.3722661549308939 0 0 0
91 1 29.77222370900662 5.436793981786994 2.7457333418892174 0 0 0
53 1 1.3528859582233626 6.753225498720042 1.295813000459972 0 0 0
56 1 4.117311783695586 9.46879902311209 1.341663040695754 0 0 0
58 1 5.485565104934982 8.080100284265836 2.7212778837886185 0 0 0
61 1 6.899798220058979 6.771738341226456 1.3110556166326315 0 0 0
64 1 9.56387960665562 9.50732554424298 1.3829426665367144 0 0 0
66 1 10.949632947325714 8.157169895310556 2.7174655247133472 0 0 0
1153 1 0.02907407666193771 16.286590852094495 10.772216851755925 0 0 0
69 1 12.14535516929031 6.74875632754994 1.327934859103906 0 0 0
72 1 14.963705909202053 9.477421246150403 1.2981702741886152 0 0 0
74 1 16.196617556853507 8.124455057090964 2.7145289925941576 0 0 0
77 1 17.599410349720994 6.83419776040379 1.4168516882471427 0 0 0
80 1 20.313229268306145 9.48349520475731 1.3218250757273577 0 0 0
82 1 21.679298021603287 8.070418271336456 2.6716723775136058 0 0 0
85 1 23.041302689973513 6.74799733170125 1.2777040331551075 0 0 0
88 1 25.827593741814887 9.461438997654561 1.2713319829390357 0 0 0
90 1 27.19062320534051 8.127000956575404 2.6883542316729447 0 0 0
93 1 28.435688600738494 6.732500155974724 1.2848076322573716 0 0 0
50 1 32.57137825601346 8.097516995087304 2.614712644632004 -1 0 0
179 1 24.439827885567492 -0.006555675691068075 8.160766350879033 0 0 0
96 1 31.251378815257734 9.3788861116236 1.1756675124084497 0 0 0
99 1 2.7624985917308216 10.917914419319708 2.649943304648172 0 0 0
101 1 1.325691814768341 12.270846704339599 1.2802981694248032 0 0 0
1051 1 29.88692011178809 16.248964156511498 8.102311960091955 0 0 0
107 1 8.132469469324558 10.854612270534963 2.7127460309557825 0 0 0
109 1 6.720651761898165 12.190423120769811 1.300254147821978 0 0 0
1035 1 19.022929122394036 16.224657799597114 8.07446662714592 0 0 0
115 1 13.66788552850257 10.802681192748777 2.666946027900567 0 0 0
117 1 12.28164728646412 12.163931600415436 1.3433833761389293 0 0 0
1027 1 13.546163404217545 16.27320639402685 8.116753154920273 0 0 0
125 1 17.66316879331829 12.265373329760823 1.252753123569849 0 0 0
123 1 18.89915841149361 10.8104613207938 2.568598840575265 0 0 0
129 1 21.647813041753174 10.868454473851235 -0.01591160291114313 0 0 0
133 1 23.10173910534338 12.140062615605938 1.312426839631166 0 0 0
131 1 24.466437996643098 10.807377411104225 2.6956552097994306 0 0 0
141 1 28.56377149724781 12.199233663200843 1.2984604240880961 0 0 0
145 1 32.56114169085255 -0.0037674348208440733 5.493751956252201 -1 0 0
139 1 29.950686866171825 10.801624853624796 2.5680329789206033 0 0 0
867 1 2.6586044955024897 16.24444647165711 2.7170970309123073 0 0 0
104 1 3.937847671938407 14.955551960671968 1.3120198116338335 0 0 0
106 1 5.392951035737148 13.590933066760705 2.5467492732000054 0 0 0
108 1 8.10261818024863 13.617410743300836 0.019138735477648078 0 0 0
875 1 8.143019663931891 16.196948425760482 2.752072752135564 0 0 0
112 1 9.452965859867293 14.967931734748307 1.3074457666610355 0 0 0
114 1 10.889588894588023 13.52883160382068 2.6752126648185657 0 0 0
883 1 13.503578605687819 16.248564125524236 2.6945127490523886 0 0 0
120 1 14.999827093718187 14.919011073484517 1.287571296368339 0 0 0
122 1 16.27922000787226 13.623319931053139 2.6537888558467317 0 0 0
128 1 20.488560764561807 14.967530238409033 1.3528530189659924 0 0 0
130 1 21.767389700811787 13.567888576533585 2.661644349043502 0 0 0
132 1 24.51753231403922 13.627986640740728 0.0542480721292831 0 0 0
136 1 25.93028157607039 14.996205313328302 1.3781930179385464 0 0 0
138 1 27.217356489235755 13.559587480666881 2.6990962854912035 0 0 0
98 1 32.569851094446214 13.547967445064149 2.6792257949307268 -1 0 0
153 1 5.423764320895183 0.07224696219479654 5.434883926484111 0 0 0
144 1 31.23763589063872 14.945533682308561 1.4144113830775176 0 0 0
148 1 2.6429110543194025 2.646507134490363 5.336272631752104 0 0 0
7 1 4.0136898725307955 1.3743842278231755 4.029659324013885 0 0 0
156 1 8.124261821748258 2.7350320500438707 5.420226492344549 0 0 0
15 1 9.46392555533741 1.2883883381235428 4.043839600370617 0 0 0
430 1 28.562717344702037 14.976107316276819 14.924170231118616 0 0 0
164 1 13.514635336023547 2.6772507981318365 5.417050114580058 0 0 0
23 1 14.910536355414674 1.3392236478361645 4.103832584887958 0 0 0
418 1 21.73091164359703 13.501182487800842 13.538710303906585 0 0 0
31 1 20.34167649214474 1.3083585260263777 4.142717054730572 0 0 0
172 1 18.963216188003646 2.6103613628428386 5.459215440444037 0 0 0
39 1 25.806643535692427 1.3167387208919632 4.185875161029502 0 0 0
180 1 24.438750156578838 2.7362791097306722 5.488128714073031 0 0 0
422 1 23.07002605785251 14.883801363527986 14.891202982338788 0 0 0
47 1 31.11982990923762 1.2967161987925395 4.187887879124107 0 0 0
188 1 29.825517028819334 2.6774398260774075 5.451836086278306 0 0 0
6 1 1.233478635781069 4.01897294662079 4.091416120861132 0 0 0
193 1 32.52031774564986 5.401319838273085 5.437949355876794 -1 0 0
201 1 5.371285855633555 5.388116736631949 5.480599428315764 0 0 0
14 1 6.747989388660171 4.136721674370816 4.089270992325162 0 0 0
209 1 11.014962668327001 5.375584638189469 5.4689428458286296 0 0 0
22 1 12.230604212268199 3.9924804323516008 4.041064603031972 0 0 0
30 1 17.651011108205644 4.0962344274768805 4.1879580944936325 0 0 0
217 1 16.177834092326336 5.417600986025324 5.393943406617608 0 0 0
38 1 23.08800100664003 4.062501024270517 4.029278532774293 0 0 0
225 1 21.657689884342204 5.405791277743259 5.376388816352433 0 0 0
46 1 28.539325321221643 4.006109150268825 4.036674777200213 0 0 0
233 1 27.144627668304693 5.373274857435124 5.369981701543277 0 0 0
54 1 1.3492771721876198 9.48298315935156 3.9622487820135537 0 0 0
196 1 2.5973663106643734 8.175877034674635 5.486478194984756 0 0 0
55 1 4.02059420793384 6.752772587991741 4.124946893728052 0 0 0
62 1 6.801288163786844 9.467965205393808 4.144844603791554 0 0 0
204 1 8.217372577241294 8.23298180162517 5.437540918899068 0 0 0
63 1 9.588072745304764 6.766195925226132 4.080898144906504 0 0 0
70 1 12.279965433311954 9.49875220432791 4.094714662227627 0 0 0
212 1 13.651320152389019 8.156527194180688 5.368131547677338 0 0 0
71 1 14.88173903783411 6.7308902380062525 4.025437705182572 0 0 0
78 1 17.668178853368907 9.44155148772761 4.051955922038405 0 0 0
79 1 20.33487342115312 6.744833200124259 4.026324561154579 0 0 0
220 1 19.006256121868976 8.115449174735966 5.364415146445701 0 0 0
86 1 23.112013281005446 9.466544755344874 4.0541617519858475 0 0 0
87 1 25.792219573060414 6.784250292664194 4.0442848148767485 0 0 0
228 1 24.496120458771063 8.086910291781665 5.415090052456351 0 0 0
94 1 28.578189325787335 9.503132656172905 4.119849116000567 0 0 0
95 1 31.16750907569119 6.849505318940193 4.116175516506035 0 0 0
236 1 29.79262160154717 8.139127592172352 5.533679762213314 0 0 0
103 1 4.106243590791958 12.317956792690783 3.93187467816098 0 0 0
249 1 5.373826140250863 10.873448011656526 5.341733193014881 0 0 0
111 1 9.47236053019064 12.201231580792015 4.02982870104911 0 0 0
257 1 10.923984338827985 10.885829040089344 5.394620684654342 0 0 0
119 1 15.03738648841082 12.142825651879402 4.004858080741003 0 0 0
265 1 16.307966053198022 10.787949374057064 5.3952261734607925 0 0 0
127 1 20.274169267286737 12.203279392049032 3.8859705892615595 0 0 0
273 1 21.694942521011995 10.81484526461414 5.271749300534014 0 0 0
135 1 25.838669739510873 12.17357332637547 4.070234233397064 0 0 0
281 1 27.209012105660694 10.831943647920886 5.485421843478418 0 0 0
241 1 32.595657078468655 10.895252724437928 5.335849866062555 -1 0 0
143 1 31.18694161037401 12.207559593529991 4.022107921505127 0 0 0
102 1 1.3264098312145611 15.019776479645895 4.040799055131104 0 0 0
244 1 2.6368186876888564 13.5363167390679 5.382386019438804 0 0 0
110 1 6.7067059311622055 14.84254959249454 4.08923186689729 0 0 0
252 1 8.071636460683134 13.492122620087587 5.413361801107126 0 0 0
1025 1 10.837565836403996 16.238674365394512 5.413286829251581 0 0 0
118 1 12.214830000136766 14.90403397925254 4.097855709374042 0 0 0
260 1 13.63357149518099 13.526442100592336 5.341566291296246 0 0 0
1049 1 27.118338249960857 16.287806712763793 5.3618838780778315 0 0 0
126 1 17.58008116939593 14.974372960127189 4.026161162488892 0 0 0
268 1 18.973541643107975 13.527065934451024 5.329345128467082 0 0 0
134 1 23.14069576387243 14.896131800050847 4.078688614630823 0 0 0
276 1 24.44756062742258 13.567771044922285 5.468352106757434 0 0 0
142 1 28.50707868504374 14.980434077393834 4.063001287877097 0 0 0
284 1 29.85959187654879 13.558691178872035 5.4133831454630625 0 0 0
1179 1 19.036944065759382 16.228215238309765 13.559051513230216 0 0 0
149 1 1.3117388847164908 1.3791213793386234 6.776841734300673 0 0 0
151 1 4.000414181202477 1.2978595693524508 9.50421895647368 0 0 0
154 1 5.3511791499186465 2.747073467804074 8.123637220118862 0 0 0
157 1 6.790547797868437 1.4306689338475642 6.757130750570794 0 0 0
159 1 9.477040095246817 1.3274663531569892 9.502459300052003 0 0 0
162 1 10.953796120243153 2.767676874225625 8.166048733789987 0 0 0
1041 1 21.72343152034684 16.263701711483453 5.371378460110555 0 0 0
165 1 12.156549463790089 1.278294823713373 6.835916514697059 0 0 0
167 1 14.82769317766101 1.3615431313260593 9.604411301914304 0 0 0
170 1 16.260479581452913 2.71929744707546 8.119504488354288 0 0 0
173 1 17.6529835157121 1.2511984348203993 6.836906782880067 0 0 0
410 1 16.33444615176573 13.56069358014887 13.546334113999766 0 0 0
175 1 20.36616077891375 1.375861413394233 9.533480600244422 0 0 0
178 1 21.736116029538397 2.644200173973367 8.123517194956507 0 0 0
181 1 23.052552038202872 1.3537046831834816 6.753626373601852 0 0 0
183 1 25.896081106670515 1.3557683052321912 9.512234425571481 0 0 0
186 1 27.20137054555723 2.6133169220038632 8.112710759513105 0 0 0
189 1 28.539041025575624 1.2591572831020759 6.77837287339275 0 0 0
146 1 32.59362664599316 2.6211101062853888 8.143798257064615 -1 0 0
187 1 29.917624694806662 0.03765348094153291 8.158983809167895 0 0 0
191 1 31.224999419323463 1.3411293638421733 9.551864784499806 0 0 0
150 1 1.2873316969091457 3.983720704754015 9.512278746737492 0 0 0
195 1 2.575040449821644 5.357616601003189 8.215406866538851 0 0 0
152 1 4.015188225809144 4.066239720565935 6.7649253525923365 0 0 0
158 1 6.740417496471986 4.126488134787786 9.539012493724512 0 0 0
203 1 8.129063741251704 5.3846932110420616 8.087363747381534 0 0 0
160 1 9.548288672610344 4.073075499428485 6.766721326124761 0 0 0
166 1 12.251811193617243 4.092552079659205 9.5232758063895 0 0 0
211 1 13.629517515482084 5.409299135214291 8.098878291966448 0 0 0
168 1 14.900017199933478 3.9870392169872235 6.6949197428812885 0 0 0
174 1 17.6490758474089 4.0112773371108466 9.42196055109389 0 0 0
176 1 20.34541242719101 4.011598508483059 6.7401133732409795 0 0 0
219 1 18.967828682917403 5.361285411718496 8.038133798055593 0 0 0
182 1 23.12487828999379 4.03952965604907 9.469926541532141 0 0 0
184 1 25.876678892698763 4.070214872275553 6.824650999450943 0 0 0
227 1 24.463878116365194 5.447198177235467 8.10111284811609 0 0 0
190 1 28.408671837363297 3.9975680989497056 9.56960301569062 0 0 0
192 1 31.182006073589267 4.0602271014636475 6.876652650197158 0 0 0
235 1 29.80495866276388 5.446256845423222 8.228823580799338 0 0 0
194 1 32.49936400432276 8.097584411589779 8.256192342658476 -1 0 0
197 1 1.2397900138112243 6.759492506073296 6.7990566215071055 0 0 0
198 1 1.3111393453503926 9.445316935264872 9.570095775133481 0 0 0
199 1 4.006498925313842 6.742007280589437 9.546672943973151 0 0 0
200 1 3.990272036021564 9.510502865632311 6.737903065764667 0 0 0
202 1 5.332013486342199 8.092101293296682 8.128971619129112 0 0 0
205 1 6.741684074334479 6.800974580202383 6.7527790804738075 0 0 0
206 1 6.700818852798936 9.436112135702482 9.499697521432314 0 0 0
207 1 9.525390594398889 6.814559755733738 9.505653546688555 0 0 0
208 1 9.504804951202757 9.545977991524701 6.784957997397552 0 0 0
210 1 10.95719105248367 8.144040140799772 8.12273636681658 0 0 0
213 1 12.325402893433404 6.839765080864938 6.78664610695753 0 0 0
214 1 12.237581336244821 9.505905579102773 9.496454401426673 0 0 0
215 1 15.001012507020148 6.8165670290701605 9.560209345859672 0 0 0
216 1 14.989379305267459 9.48589126941725 6.752837041789612 0 0 0
218 1 16.312353183730604 8.075379783708552 8.089168254003328 0 0 0
221 1 17.684974609053963 6.795318798851116 6.710828761560124 0 0 0
222 1 17.622430687946697 9.516186827012506 9.458825795866597 0 0 0
223 1 20.334831952334888 6.730653464940495 9.472139770549253 0 0 0
224 1 20.34409063078772 9.499181126584991 6.676102924862382 0 0 0
226 1 21.670771177219816 8.112327633136104 8.20950297219533 0 0 0
229 1 22.976166497186856 6.764381516603287 6.746668560590869 0 0 0
230 1 23.119029343308426 9.474115039148309 9.429920873167701 0 0 0
231 1 25.846544581575237 6.811495786036417 9.491620196829622 0 0 0
232 1 25.83368037937479 9.434416441928102 6.815518697870196 0 0 0
234 1 27.154823476910465 8.072857412427885 8.160969824114241 0 0 0
237 1 28.487557183136257 6.704465909600352 6.800374999775442 0 0 0
238 1 28.4827391683661 9.584336604418764 9.410207595230808 0 0 0
239 1 31.105402462653846 6.813401714675227 9.615696631465703 0 0 0
240 1 31.31449822274537 9.530210894355273 6.760752733837805 0 0 0
243 1 2.527235258052439 10.828163862793254 8.114359826143025 0 0 0
245 1 1.2939761016956506 12.269260489211915 6.769722350579701 0 0 0
247 1 4.025072036107169 12.241696754948265 9.426196112728299 0 0 0
251 1 8.083462744849044 10.872623677995408 8.151079091794472 0 0 0
253 1 6.731277324734303 12.205206757616944 6.725672573856519 0 0 0
255 1 9.483503770398823 12.256335644088194 9.478189824289906 0 0 0
259 1 13.67304866162026 10.850923923544883 8.195456893144291 0 0 0
261 1 12.258051995389787 12.27085082161854 6.831129735932671 0 0 0
263 1 14.956257048473194 12.275392621919353 9.463345165150074 0 0 0
269 1 17.59682733114589 12.212717648306857 6.637965073636547 0 0 0
267 1 18.958169999816377 10.799186257443935 8.04344237075082 0 0 0
271 1 20.312768106276906 12.141847246324362 9.537178778418388 0 0 0
277 1 23.05343040068144 12.12460433950857 6.7190985988167 0 0 0
275 1 24.48000961756593 10.830043339630546 8.102101194490047 0 0 0
279 1 25.7828085356763 12.162245262819088 9.525675911251126 0 0 0
285 1 28.53461627180611 12.190777219152446 6.8194083650302835 0 0 0
283 1 29.9595257572804 10.892496191109409 8.165397308346426 0 0 0
287 1 31.202575251997676 12.311913644093599 9.527618103714042 0 0 0
1011 1 2.756482661054201 16.24810862637628 8.202642831124177 0 0 0
242 1 32.578522830371526 13.633595308409783 8.076753173977275 -1 0 0
246 1 1.367327682684445 14.904577479993229 9.435878134104076 0 0 0
248 1 4.087401705624714 14.85268236577347 6.739925013054763 0 0 0
250 1 5.499990322404249 13.577572225668959 8.157544057161669 0 0 0
1019 1 8.163037586764998 16.21947940147582 8.142087801733943 0 0 0
254 1 6.712482757281346 14.930373969091352 9.533809145645746 0 0 0
256 1 9.433020100356261 14.851338613305582 6.757321176275893 0 0 0
258 1 10.810605573325677 13.571376190844294 8.155532278135253 0 0 0
262 1 12.21566227930633 14.92657078627856 9.51193366764082 0 0 0
264 1 14.914602470746726 14.966411608577856 6.689376726812377 0 0 0
266 1 16.268357348138274 13.534308657670328 8.100170244286241 0 0 0
270 1 17.71502379896486 14.914751504867015 9.505401161995282 0 0 0
272 1 20.354265223416323 14.78948006180403 6.7721709781888375 0 0 0
274 1 21.694254999804976 13.484724584889658 8.175019041441313 0 0 0
278 1 23.060566013736047 14.995439260997625 9.41619228510354 0 0 0
1043 1 24.449014994539873 16.21838614391591 8.097123823639947 0 0 0
280 1 25.815829417894477 14.910662956682962 6.732461011770497 0 0 0
282 1 27.119474281197974 13.55338668944475 8.172315685815217 0 0 0
286 1 28.514098933096346 14.857083004564336 9.51982460896823 0 0 0
288 1 31.212449560568135 14.949850267751472 6.726459463729808 0 0 0
289 1 0.04341668958621366 -0.015576089698366581 10.855420334649093 0 0 0
292 1 2.6169030098264545 2.623266001794718 10.869985641922352 0 0 0
293 1 1.3652699404460518 1.3614766163166467 12.183597187111909 0 0 0
300 1 8.105101868991238 2.615250407859152 10.907928241162915 0 0 0
301 1 6.7181973938957515 1.2848486867595579 12.209162013454227 0 0 0
414 1 17.59838884964252 14.915539744076973 14.94137225719011 0 0 0
308 1 13.567220369633677 2.812041079309002 10.906626851340308 0 0 0
309 1 12.167596065603544 1.2404706051677536 12.199648192330221 0 0 0
1171 1 13.67413967790668 16.250966850081763 13.578059648078973 0 0 0
317 1 17.597767221301254 1.4641219419448284 12.198770194151374 0 0 0
316 1 19.02021168470031 2.740158580859443 10.786655510530316 0 0 0
325 1 23.118507923523314 1.2491215685189023 12.259252672986674 0 0 0
324 1 24.404430407748617 2.685873018611601 10.900597494558298 0 0 0
333 1 28.512981601056445 1.4630415111623967 12.246093468559991 0 0 0
332 1 29.87582827698609 2.6831396415989315 10.881309797311385 0 0 0
296 1 3.9311146274534585 3.9959039031065315 12.241019456164405 0 0 0
345 1 5.384927884409234 5.381463956050283 10.95422243602521 0 0 0
304 1 9.529941421970436 4.062086287086682 12.21449385815399 0 0 0
353 1 10.986107802175237 5.498259224683998 10.875983796704748 0 0 0
312 1 14.983048985586455 4.240763102625329 12.25739384282727 0 0 0
361 1 16.37462314752057 5.471554882353882 10.817757733191005 0 0 0
320 1 20.43133652908128 4.009507110865085 12.183462853565882 0 0 0
369 1 21.739939281783283 5.420006340289565 10.848639290935154 0 0 0
328 1 25.66825673148906 4.087597182933845 12.243000535521457 0 0 0
377 1 27.110140050864796 5.418538861075436 10.898447117349255 0 0 0
337 1 32.5336919399295 5.413827706535076 10.840132458725662 -1 0 0
336 1 31.270190953565777 4.069516351419279 12.245062580623728 0 0 0
340 1 2.7444476770351844 8.121342537951943 10.943590463921737 0 0 0
341 1 1.3176866366962567 6.734716272705816 12.282789590185477 0 0 0
344 1 4.095848696010396 9.563342926917032 12.283984929159656 0 0 0
348 1 8.10982625500619 8.165486065261598 10.86699444183335 0 0 0
349 1 6.7635661712049435 6.72447375363094 12.251270525610245 0 0 0
352 1 9.472286803508547 9.517758473421377 12.232740864185532 0 0 0
356 1 13.516821848847895 8.18670314387496 10.952215647737741 0 0 0
357 1 12.194682491248509 6.8595166963864465 12.338278504173639 0 0 0
360 1 14.991190185637821 9.51636969230687 12.278491145965516 0 0 0
365 1 17.635674703432073 6.802871062853025 12.189607419976896 0 0 0
364 1 18.98043026256242 8.132788610219617 10.79649134334832 0 0 0
368 1 20.28327241524849 9.412087924824858 12.188289546454723 0 0 0
373 1 23.10952265072558 6.790939983801903 12.262152350850135 0 0 0
372 1 24.503743011214365 8.150294814188879 10.83929809231111 0 0 0
376 1 25.82250762320273 9.553376887474858 12.22823137624503 0 0 0
381 1 28.425211246829754 6.786813316353304 12.209622206284928 0 0 0
380 1 29.796514837159265 8.28076800075591 10.967702826050134 0 0 0
384 1 31.340967997227068 9.527221217324222 12.276014500387221 0 0 0
389 1 1.3426693405261774 12.157545555955444 12.200251468406579 0 0 0
393 1 5.408650076404298 10.901065805489113 10.778222012931947 0 0 0
397 1 6.744558226607897 12.148980696415293 12.176180779164003 0 0 0
401 1 10.808125162892074 10.87514940852429 10.857634967908588 0 0 0
405 1 12.196695878125109 12.196156512878705 12.272232939854115 0 0 0
409 1 16.281619248519675 10.832728397524715 10.834056207329354 0 0 0
413 1 17.642140073213678 12.103057030679043 12.273583731625326 0 0 0
417 1 21.658545274691722 10.833166846569327 10.83429210636899 0 0 0
421 1 23.047473047022358 12.257232467528551 12.146041180302543 0 0 0
425 1 27.19973566222562 10.831533670836743 10.87982100236338 0 0 0
429 1 28.52089662550076 12.26308485084527 12.230709619817505 0 0 0
385 1 32.4948861388296 10.877867137556043 10.834652418014542 -1 0 0
388 1 2.6674629329732857 13.581714627290113 10.824943482512403 0 0 0
406 1 12.243395387910272 14.932335942110155 14.822011242637352 0 0 0
392 1 4.074959726692582 14.923351236897444 12.200921857495466 0 0 0
396 1 8.111240215619382 13.586131069704956 10.832431604779934 0 0 0
1313 1 10.818830532483648 16.205472499510112 16.195410689452746 0 0 0
400 1 9.457926593013177 14.940732187460291 12.200911175946564 0 0 0
404 1 13.545986702461793 13.522021520707485 10.880409783791274 0 0 0
408 1 14.965800237213434 14.8822280592716 12.211939454554546 0 0 0
412 1 19.005843710550366 13.515063450958754 10.870973246606528 0 0 0
416 1 20.359791160157787 14.871478052915647 12.169905862199151 0 0 0
420 1 24.394934354678544 13.505725073981079 10.731641775732038 0 0 0
424 1 25.756301030668823 14.898539821221528 12.197714325255125 0 0 0
1193 1 27.181694836312726 16.257691994261766 10.909316920316824 0 0 0
428 1 29.878258214810923 13.567001536398019 10.892332582886999 0 0 0
432 1 31.29455665362204 14.918994715370623 12.246601797298414 0 0 0
291 1 2.708593317816319 0.02031499664331113 13.57204485699087 0 0 0
402 1 10.76621591566341 13.59669768546661 13.534270657253602 0 0 0
11 1 8.076611642904698 -0.0053862678236313855 2.720854274543411 0 0 0
295 1 4.047655597007839 1.3501644711397274 14.928290763259492 0 0 0
298 1 5.3631726509179884 2.700397738966638 13.528154738150603 0 0 0
540 1 8.080795393490039 13.536572626614221 16.278113309176273 0 0 0
444 1 8.184330818759687 2.7423777708198758 16.2105751904033 0 0 0
303 1 9.498873138024981 1.220089779223193 14.900782655921558 0 0 0
306 1 10.795825278366062 2.648770053581079 13.547955956994253 0 0 0
398 1 6.838897733185916 14.889903307458427 14.89837173546836 0 0 0
1163 1 8.124678141134362 16.277042073490986 13.61803103635456 0 0 0
311 1 14.940506084513672 1.3513720368501125 14.936187871164023 0 0 0
314 1 16.285157213296124 2.7772859806641446 13.594639641615956 0 0 0
394 1 5.4215949695483845 13.585256621579516 13.586653466529265 0 0 0
315 1 18.915140203146468 0.04712181077068605 13.556526090789657 0 0 0
319 1 20.47589697868442 1.2607438943610505 14.928531397066527 0 0 0
460 1 19.034364955919756 2.595270649374028 16.162496924670698 0 0 0
322 1 21.77713934841703 2.668975663575772 13.592955294304637 0 0 0
532 1 2.736204781111251 13.610434006613126 16.271010130593748 0 0 0
327 1 25.738697158703214 1.2923016823845568 14.980855863123043 0 0 0
907 1 29.879343779524827 16.27783734758561 2.705498529243654 0 0 0
330 1 27.092624368131336 2.747753242697456 13.572637133112783 0 0 0
386 1 0.03421148544383928 13.626116505649241 13.558341095277418 0 0 0
290 1 -0.01629086003161717 2.7136329040749834 13.635555117733727 0 0 0
335 1 31.223751027806923 1.3229291018634048 14.974200348909632 0 0 0
476 1 29.820505481641522 2.6701035370874857 16.213796962642192 0 0 0
294 1 1.2891259133989479 4.057391447434356 15.04798934838833 0 0 0
339 1 2.61827901459247 5.332094766013449 13.59013734501736 0 0 0
302 1 6.741889906434474 4.058019886923595 14.85042068803187 0 0 0
347 1 8.182499418866998 5.414450689309843 13.563934628940167 0 0 0
310 1 12.222478733059779 4.0061605541419185 14.833297138715828 0 0 0
355 1 13.586878588199124 5.535926660106337 13.714160472862883 0 0 0
318 1 17.762142480046908 4.075288416260618 14.90081764900937 0 0 0
331 1 29.833456147192397 0.07740572168730608 13.541118387994393 0 0 0
363 1 19.064786918159708 5.412330381992144 13.519480539694422 0 0 0
326 1 23.075117250999348 3.9826827901473694 14.9967573156792 0 0 0
371 1 24.37681377277866 5.382494675245252 13.64957086722865 0 0 0
334 1 28.444751627095684 4.024925684537557 14.937726332568472 0 0 0
379 1 29.781199669998582 5.421695445359179 13.539790721925058 0 0 0
342 1 1.4214936540690293 9.510172748213359 14.940104241490042 0 0 0
343 1 3.996994282724124 6.730490204269433 14.977539290956052 0 0 0
346 1 5.399523843793203 8.110319412102386 13.632722378337693 0 0 0
350 1 6.780432579343701 9.448566751310914 14.962395074884455 0 0 0
899 1 24.469061556689038 16.238532332653016 2.646890225361509 0 0 0
351 1 9.461342090174663 6.788320427982126 14.947521762964282 0 0 0
354 1 10.824341693518758 8.224462046592192 13.653483543413191 0 0 0
358 1 12.286008571298016 9.499095666112378 14.969877501130373 0 0 0
390 1 1.3663754571738806 14.969023092006031 14.92723821264942 0 0 0
359 1 14.961825473042797 6.852891317203083 15.01368663563999 0 0 0
362 1 16.3586990577362 8.149248508469356 13.562039570213546 0 0 0
366 1 17.632189229170017 9.505897933871008 14.969749868986716 0 0 0
367 1 20.343019157886573 6.7157189888444515 14.933922823550114 0 0 0
508 1 18.99231609022585 8.149675514159886 16.27071960130379 0 0 0
370 1 21.6392616697027 8.086611873377674 13.574157977819901 0 0 0
374 1 23.07016531586805 9.470905206662072 14.862304258874595 0 0 0
375 1 25.770752889821924 6.776509383140425 14.924896466921174 0 0 0
378 1 27.14896982557822 8.112409073303436 13.60976858641234 0 0 0
382 1 28.504442877947582 9.538833566301243 14.963850196668046 0 0 0
338 1 32.59565809752517 8.119899383202947 13.639186146699307 -1 0 0
383 1 31.163578445922354 6.731075872041521 14.875580525495904 0 0 0
387 1 2.7387137246473126 10.906582519271058 13.597227653661019 0 0 0
391 1 4.121956038839738 12.229210584655073 14.950957224273711 0 0 0
427 1 29.861088714513198 10.975990838749299 13.622675726686586 0 0 0
395 1 8.017109086716797 10.780631385756969 13.56584612504659 0 0 0
399 1 9.481951078076609 12.159779753193508 14.899373066060212 0 0 0
403 1 13.623671119504898 10.867984000499362 13.589898228733832 0 0 0
407 1 14.973121385718468 12.250017321873663 14.87438278507413 0 0 0
553 1 16.33533804301105 10.833451423756427 16.206831998813136 0 0 0
415 1 20.29699192146756 12.158473095683025 14.894691280495431 0 0 0
411 1 18.975991559065942 10.780338764011827 13.579845008688357 0 0 0
423 1 25.836851174889606 12.227285981859414 14.937990784220382 0 0 0
419 1 24.416084370911673 10.898082106394138 13.570665586197725 0 0 0
431 1 31.273265990301635 12.349036160813466 14.95068661520165 0 0 0
489 1 5.428447266893355 5.360092259751796 16.214140830536202 0 0 0
865 1 -0.005404773689200226 16.260785800168662 -0.004477439523931537 0 0 0
497 1 10.874290818062091 5.468290190727722 16.24415569259392 0 0 0
513 1 21.75184735510638 5.451369899016684 16.269374874485646 0 0 0
521 1 27.145061413829364 5.44892051765361 16.28302824555672 0 0 0
516 1 24.404362323177303 8.15596632939649 16.281851746958544 0 0 0
524 1 29.866425946750674 8.163132060395567 16.250819727271306 0 0 0
545 1 10.799000689543057 10.889397617819444 16.2075102628546 0 0 0
561 1 21.722887976891382 10.84433154137628 16.25717035962059 0 0 0
1305 1 5.439250922225613 16.25682905609419 16.12355448018855 0 0 0
548 1 13.595462465536565 13.605915893518961 16.161696964124687 0 0 0
564 1 24.410053802884597 13.548823975073352 16.271065049856837 0 0 0
897 1 21.77946305200433 16.264714956769396 -0.017404055152177023 0 0 0
124 1 19.10433884953527 13.619774542940842 -0.002954431583539474 0 0 0
12 1 8.17882566530349 2.6480585165579718 0.02336953237657724 0 0 0
28 1 19.140792534156947 2.664635479784838 0.019040503755427096 0 0 0
41 1 27.12536418041667 0.014265914866825824 0.027956926317230568 0 0 0
73 1 16.327543472773215 5.373253564715087 0.0718538863488618 0 0 0
60 1 8.160383145698972 8.275497504263482 0.045075865426227324 0 0 0
76 1 18.972952405274313 8.11146150771984 0.0081496262333971 0 0 0
434 1 32.57823058484789 2.624537236129537 18.929395363049775 -1 0 0
435 1 2.709641443700796 0.022526958001511242 18.946489553531872 0 0 0
437 1 1.3681975450826065 1.3160674644750465 17.58213771113485 0 0 0
441 1 5.381619962726111 0.07962422253237955 16.360601218481886 0 0 0
442 1 5.427695590324815 2.6959252910872173 19.052096896022906 0 0 0