LAMMPS data file via write_data, version 19 Nov 2024, timestep = 60100, units = metal

1728 atoms
1 atom types

-0.016242451914326494 32.596242451915266 xlo xhi
-0.016242451914326494 32.596242451915266 ylo yhi
-0.016242451914326494 32.596242451915266 zlo zhi

Atom Type Labels

1 Si

Masses

1 28.0855

Atoms # atomic

2 1 32.55390382990735 2.688206221338675 2.6218628187800572 -1 0 0
3 1 2.6797779695326542 0.025866706938859767 2.642979835717185 0 0 0
4 1 2.74905995705707 2.599313333991781 0.007137907191719799 0 0 0
5 1 1.3284789102769567 1.3593704450891282 1.2794446925218264 0 0 0
10 1 5.452682009654148 2.6976372354491884 2.6953820476495713 0 0 0
313 1 16.242721910512596 -0.013906617318461656 10.856797555372527 0 0 0
12 1 8.128174444770467 2.6233572207615783 -0.00010301059055252426 0 0 0
13 1 6.772969652918008 1.2909361742898415 1.3294861849180244 0 0 0
18 1 10.818558623059625 2.6703917698416575 2.7091984374083773 0 0 0
1195 1 29.944165134773403 16.260022766143127 13.497720809277327 0 0 0
20 1 13.592361358605348 2.581320319655224 0.015164065000999757 0 0 0
21 1 12.12732624372541 1.2587081404089406 1.3324151413511682 0 0 0
426 1 27.057110700762333 13.668276365364614 13.587268288616336 0 0 0
26 1 16.310365397124087 2.636493231964641 2.71710598248776 0 0 0
29 1 17.64892546357892 1.2595534202562313 1.3863769549873037 0 0 0
34 1 21.726701086120794 2.75205301407471 2.770963946710609 0 0 0
37 1 23.062899430368393 1.4614577597887688 1.4525230888683363 0 0 0
36 1 24.410517243186696 2.7973992671896952 0.03519234471557951 0 0 0
42 1 27.105572060017796 2.7805036068070206 2.796102921695284 0 0 0
45 1 28.44223969360539 1.4104202786613962 1.4136005045196536 0 0 0
44 1 29.83831812504193 2.7113131465088394 0.06272731744094392 0 0 0
51 1 2.7645948364249278 5.380250856744034 2.769033963089975 0 0 0
8 1 4.090283629810591 4.059086563426275 1.316705652143358 0 0 0
59 1 8.176662858033206 5.392192331987543 2.7484869871511464 0 0 0
16 1 9.482017510378672 4.001144239007999 1.3532673100524906 0 0 0
65 1 10.92898474815444 5.346227620852217 0.014365351537246603 0 0 0
67 1 13.540812334889837 5.392048168288497 2.623573369126155 0 0 0
24 1 14.94201451373303 4.020705622097122 1.2886543584532073 0 0 0
32 1 20.315934933412677 4.089924149766174 1.377637358158379 0 0 0
75 1 18.92107550010991 5.440437090278227 2.690689236432557 0 0 0
81 1 21.602401016453143 5.4723487519717935 0.060823348691884854 0 0 0
40 1 25.81433350316828 4.0724108588547105 1.3878565045631617 0 0 0
83 1 24.376636254439205 5.438396919688516 2.7019938027882633 0 0 0
48 1 31.25996459005806 4.068080000104188 1.2520373077224447 0 0 0
91 1 29.943064648102318 5.350912298570235 2.669709023111964 0 0 0
52 1 2.7463035617581224 8.147973146466432 0.0005401144717881024 0 0 0
53 1 1.4344484824993924 6.775109988246479 1.3608346702219323 0 0 0
56 1 4.074141099991109 9.53761651545626 1.3778011981380809 0 0 0
58 1 5.429198133865581 8.146989637970092 2.6853069730767154 0 0 0
61 1 6.818938440790656 6.752816960735323 1.3765657300100873 0 0 0
64 1 9.53387805693543 9.488879880829101 1.261763836968147 0 0 0
66 1 10.867319538127065 8.109025787503711 2.7102359124715023 0 0 0
69 1 12.218448941538103 6.803092145995158 1.3582005311738496 0 0 0
72 1 14.858132118690373 9.53866589013274 1.3581062005406224 0 0 0
74 1 16.236631309601254 8.132710264933548 2.629675289013931 0 0 0
77 1 17.587924281252356 6.725209704330086 1.2726820437667525 0 0 0
1193 1 27.139191593052008 16.273242818877254 10.788879867411023 0 0 0
80 1 20.27438293852129 9.400158135830988 1.3363538417616443 0 0 0
82 1 21.714729861763878 8.117057838200529 2.6523439652909886 0 0 0
85 1 23.011530600203066 6.791316094151186 1.3228640272643921 0 0 0
88 1 25.780799198394664 9.483861060473012 1.282700123947839 0 0 0
90 1 27.185409668015367 8.150528583663588 2.6410815576462268 0 0 0
93 1 28.589390947751546 6.826938991301416 1.3124150589505057 0 0 0
50 1 -0.008373273624627586 8.114945895986382 2.688322828521922 0 0 0
179 1 24.52873338789567 0.038277314598040846 8.194337235577642 0 0 0
96 1 31.258023672321578 9.54058277127116 1.2809445584557255 0 0 0
99 1 2.5246464874461836 10.863567128144886 2.6079061928249696 0 0 0
101 1 1.2823820950755287 12.257068086291856 1.22863607045133 0 0 0
155 1 8.16357149549543 -0.0028126078392389786 8.070123897359608 0 0 0
107 1 8.160050228615178 10.87180470931466 2.650824114671985 0 0 0
109 1 6.773834522205696 12.184928859642346 1.3684803916018877 0 0 0
115 1 13.512578410890576 10.89221967985412 2.7607972960088234 0 0 0
117 1 12.260895657842756 12.24700202002338 1.407499672857576 0 0 0
1051 1 29.95717506599139 16.21812464447777 8.074593081502575 0 0 0
125 1 17.659260896425867 12.177621457512181 1.327324373236239 0 0 0
123 1 18.996563313952493 10.86510584204565 2.735156351246846 0 0 0
133 1 23.087518861328824 12.2209998246148 1.3181456682704547 0 0 0
131 1 24.431548019440317 10.885685598559697 2.6590891678734176 0 0 0
1035 1 18.973547891866847 16.126138117058417 8.150745225789443 0 0 0
141 1 28.561423300794942 12.172556280669857 1.2899714572524834 0 0 0
177 1 21.71283319103811 0.07088029484134495 5.463397028503773 0 0 0
139 1 29.93908240280153 10.823106182042423 2.686480169611966 0 0 0
104 1 4.042610636996166 15.012711350254497 1.238361979924112 0 0 0
106 1 5.344106179411403 13.569178808058734 2.6905710135332503 0 0 0
153 1 5.34561069306622 0.0793758722236575 5.3585962314591 0 0 0
875 1 8.17698386200979 16.274816790664477 2.6131817923895606 0 0 0
112 1 9.552413846409063 14.852140876044153 1.3706814366687046 0 0 0
114 1 10.857655794351572 13.513647887762053 2.7217385704291317 0 0 0
883 1 13.62503250364347 16.160108134201426 2.7193015983861417 0 0 0
1009 1 -0.012941037007976774 16.229583834529606 5.381777079951022 0 0 0
120 1 15.023095404373677 14.829952543909199 1.3435114837252415 0 0 0
122 1 16.39271699887029 13.5405355328846 2.7626039395564357 0 0 0
430 1 28.48110244708249 14.950821516182877 14.912358478193093 0 0 0
1049 1 27.18392155991503 16.22724393021294 5.389533915618702 0 0 0
128 1 20.31352007615326 14.972146446653111 1.2509365429131365 0 0 0
130 1 21.722801619221915 13.633657978763763 2.5991677833044644 0 0 0
132 1 24.4991395108043 13.511113215416175 -0.006320127640150345 0 0 0
136 1 25.897887704030147 14.921975619142824 1.2839706588113957 0 0 0
138 1 27.277275343104087 13.49470906106543 2.6446525147788917 0 0 0
98 1 -0.004755788404388284 13.50754404776125 2.706559807451881 0 0 0
1041 1 21.684709153589516 16.25315558715881 5.430802021068108 0 0 0
144 1 31.2055132685769 14.875949381375731 1.3721144353692525 0 0 0
148 1 2.708877020993359 2.733202563329725 5.393887836114144 0 0 0
7 1 4.049589766599157 1.3431360184877308 4.018849593531277 0 0 0
156 1 8.165106234315424 2.7131308801531304 5.38418244023905 0 0 0
15 1 9.443419124271445 1.346561667152424 4.022502858233605 0 0 0
418 1 21.685818909018934 13.564912405997237 13.630744046504008 0 0 0
164 1 13.582891931743324 2.6231122129634366 5.415339939709669 0 0 0
23 1 14.942644444190156 1.2191739435259557 4.086166089039332 0 0 0
422 1 23.082748480477314 14.94734958498612 14.992141628936558 0 0 0
31 1 20.36593035920638 1.420828023791057 4.1212774130356165 0 0 0
172 1 18.948044731984556 2.714002996905814 5.459715187749467 0 0 0
39 1 25.794949313375874 1.32795161285381 4.091391385927924 0 0 0
180 1 24.464939332997485 2.702305130505656 5.431465668274118 0 0 0
185 1 27.252467669121486 0.025840725047608495 5.42908086784485 0 0 0
145 1 32.549442667597965 -0.006798808764663536 5.325721594061532 -1 0 0
47 1 31.221553294065515 1.4093841468109063 4.018294978489551 0 0 0
188 1 29.843933558010537 2.766576331924147 5.429581273031977 0 0 0
6 1 1.3094479241854713 4.060945789574497 3.991892358331366 0 0 0
193 1 32.485774433537095 5.404722915030574 5.369602901858829 -1 0 0
201 1 5.421139505259831 5.46740530277904 5.446767836191116 0 0 0
14 1 6.819969906448573 4.1084161099857095 4.046751657780148 0 0 0
209 1 10.89919548402153 5.408892353140353 5.359170893270167 0 0 0
22 1 12.20186289572125 3.987917974927256 4.020520713067085 0 0 0
30 1 17.64130407689778 4.006295107953717 4.06553007053402 0 0 0
217 1 16.251782911299347 5.293848318911524 5.487697675969764 0 0 0
38 1 23.13184620094527 4.0987387327191565 4.092855379975238 0 0 0
225 1 21.708230467131084 5.461897755704416 5.409522146848925 0 0 0
46 1 28.5204253951137 4.134110680783807 4.097260561111058 0 0 0
233 1 27.143672244108274 5.451328522194282 5.423125412075654 0 0 0
54 1 1.2736138643050203 9.56322834871053 4.02330966674148 0 0 0
196 1 2.666015880176173 8.140446485219833 5.347098336603219 0 0 0
55 1 4.101271315436284 6.815706480042047 4.0559414296971115 0 0 0
62 1 6.816355442464934 9.471726437864808 4.046009647600434 0 0 0
204 1 8.138872398358862 8.068614756564354 5.505971950143555 0 0 0
63 1 9.478414116409429 6.776280573615999 4.109194588066117 0 0 0
70 1 12.239391489252496 9.462507711509 4.012772491116256 0 0 0
212 1 13.602168000179084 8.074870277395723 5.450787339961476 0 0 0
71 1 14.948430487792129 6.710453587185358 4.022176173337494 0 0 0
78 1 17.50032757231225 9.501862298352362 4.0043795213203195 0 0 0
79 1 20.314193427452267 6.797648782887452 4.098679720305541 0 0 0
220 1 18.884687588920162 8.131833451534444 5.328744540253514 0 0 0
86 1 23.02472292216412 9.499315252120956 3.9642192066448967 0 0 0
87 1 25.7795134652297 6.780888403964414 3.9904580210425302 0 0 0
228 1 24.41375242522553 8.162232474325794 5.421354863392588 0 0 0
94 1 28.501553081661662 9.463844761229323 3.9969622673510883 0 0 0
95 1 31.254751732988655 6.729372995979098 3.9725253861072938 0 0 0
236 1 29.89750059551364 8.120283005367735 5.341249183943222 0 0 0
241 1 32.462680380570504 10.780741277549254 5.536194174024473 -1 0 0
103 1 3.9293328123642044 12.179699790789488 4.004448748444674 0 0 0
249 1 5.382082352924024 10.84118585943036 5.380420664206 0 0 0
111 1 9.490178915987407 12.182056441297666 4.053208361019158 0 0 0
257 1 10.869070015934922 10.86136413248548 5.465971999315339 0 0 0
119 1 14.84167635184125 12.318175726357799 4.173190132094698 0 0 0
265 1 16.2321601148944 10.837993328536566 5.386478743649241 0 0 0
127 1 20.444095213226085 12.206460906427312 3.9772785553183065 0 0 0
273 1 21.70353737883134 10.865885629267892 5.411038577621317 0 0 0
135 1 25.86726529421979 12.198204048447211 4.020607031035101 0 0 0
281 1 27.228730297617226 10.87828477831681 5.373400700023628 0 0 0
143 1 31.277846723104947 12.117732941770235 4.021987010757215 0 0 0
102 1 1.3509946899769198 14.811851371045952 4.086280171801341 0 0 0
244 1 2.685137014554741 13.520380605007436 5.473783281026531 0 0 0
110 1 6.818816686695084 14.922434150972725 3.956400567482207 0 0 0
252 1 8.177086615022148 13.613538346997604 5.370262917168953 0 0 0
410 1 16.391538481212663 13.5516523630061 13.495535041111339 0 0 0
118 1 12.072589245040641 14.895149650262168 4.085667059706681 0 0 0
260 1 13.437293996412283 13.56217808702647 5.561722402319631 0 0 0
1033 1 16.319518677959767 16.248790777026677 5.330107541617728 0 0 0
126 1 17.80493234093252 14.963647045457991 4.022457527681609 0 0 0
268 1 19.11089634080158 13.500987123582457 5.327363380636284 0 0 0
134 1 23.147882889280307 14.930876694962965 4.056485167655194 0 0 0
276 1 24.46515722485063 13.490152175302422 5.381749579535206 0 0 0
142 1 28.59266179612974 14.894750591210403 4.008599228790286 0 0 0
284 1 29.907718559222634 13.528678610338016 5.325503557079914 0 0 0
147 1 2.6654409502579552 0.034752724819011135 8.148658975304684 0 0 0
149 1 1.2943379187584605 1.3379545123775656 6.7259233817731525 0 0 0
151 1 3.936848617330579 1.2880574446435202 9.501580846703536 0 0 0
154 1 5.37899800881966 2.5916071086187444 8.205497608752607 0 0 0
157 1 6.749451769220367 1.3983941072477553 6.773601828047342 0 0 0
159 1 9.451641002475464 1.2746304287122219 9.5249346819752 0 0 0
162 1 10.849668056177343 2.6467233350850283 8.148561585396797 0 0 0
414 1 17.699680139660316 14.893564591000173 14.984186797230223 0 0 0
165 1 12.227801042139887 1.3340353905632418 6.74696940243663 0 0 0
167 1 14.961659383877597 1.390154674864492 9.445657353725881 0 0 0
170 1 16.33280412794796 2.6077062434416063 8.136534789581395 0 0 0
173 1 17.66632510134489 1.244000652972938 6.806863517763325 0 0 0
175 1 20.424786969644384 1.2984225181999245 9.493227541995095 0 0 0
178 1 21.713819067091357 2.8245276453667905 8.241049450578595 0 0 0
181 1 23.10152950906088 1.4194813490964082 6.887788721727935 0 0 0
183 1 25.82377183559153 1.4002786476874187 9.531735120082063 0 0 0
186 1 27.18736645239781 2.722756047200868 8.209293332660234 0 0 0
189 1 28.47993880124803 1.3667968836532476 6.7949827613048415 0 0 0
146 1 32.4850099952772 2.6610194269196907 8.059364626701269 -1 0 0
191 1 31.20558353774131 1.2810574513841544 9.448210360738425 0 0 0
150 1 1.3014197448147897 4.019066075356122 9.505795965770577 0 0 0
195 1 2.66958134437485 5.372089634396794 8.109717752519309 0 0 0
152 1 4.006814355207688 4.008351373989564 6.85968891832032 0 0 0
158 1 6.727993382869487 3.924635269359028 9.55278479282226 0 0 0
203 1 8.166033261410487 5.381292231156548 8.219443463858546 0 0 0
160 1 9.527336816603958 4.036128168826902 6.757613511694353 0 0 0
166 1 12.14894625319994 3.9959150732154134 9.574192679538111 0 0 0
211 1 13.6188082815699 5.349539939642972 8.251949492235093 0 0 0
168 1 14.904610504498354 3.998800156447951 6.875836172906351 0 0 0
174 1 17.64026706913876 3.978904681307584 9.431143211939984 0 0 0
176 1 20.392248191607504 4.096295505299104 6.808234406491894 0 0 0
219 1 18.971710127909365 5.417081793457855 8.117694107273978 0 0 0
182 1 23.118891664627792 4.1224216363231925 9.608735805555552 0 0 0
184 1 25.79631453973604 4.039206183332545 6.753999488007352 0 0 0
227 1 24.470130127982127 5.408420847440588 8.200161678402802 0 0 0
190 1 28.56573023915247 4.072057404931166 9.543848411368822 0 0 0
192 1 31.151732822443712 4.046848265244307 6.779710967791822 0 0 0
235 1 29.881531631379524 5.385702009705506 8.18061975746153 0 0 0
194 1 32.58451082623332 8.090327742028776 8.129367098997593 -1 0 0
197 1 1.3503215180322632 6.769514897803004 6.747713425582691 0 0 0
198 1 1.2886396409451357 9.471592566548694 9.45745798136178 0 0 0
199 1 3.9623332644075617 6.758750318677894 9.489144659324909 0 0 0
200 1 4.030687934384894 9.514758808890708 6.781976455087137 0 0 0
202 1 5.3201230908202435 8.092680377107035 8.207582433648106 0 0 0
205 1 6.723803294543496 6.767975209781286 6.885189371743726 0 0 0
206 1 6.8036737731441015 9.460909462608292 9.552950174598717 0 0 0
207 1 9.475388002547511 6.72787707673794 9.566142694165128 0 0 0
208 1 9.539703342689632 9.437489659321907 6.831359191546661 0 0 0
210 1 10.840451872243946 8.04755677884545 8.212521920896132 0 0 0
213 1 12.279407020592874 6.650883621451775 6.813423838757326 0 0 0
214 1 12.177233293868968 9.536691815098454 9.55766706258949 0 0 0
215 1 14.893778961296626 6.743587221497725 9.575083654540007 0 0 0
216 1 14.893223799824474 9.533394937333826 6.776759764611247 0 0 0
218 1 16.183485717992465 8.123941817464207 8.184669601092793 0 0 0
221 1 17.567353517298443 6.7440583916278225 6.787859448063829 0 0 0
222 1 17.552877174283406 9.511846448035882 9.481670279051468 0 0 0
223 1 20.369346389206537 6.797096488897169 9.448488356750328 0 0 0
224 1 20.24704767824512 9.515227228482347 6.685248496415538 0 0 0
226 1 21.664601132537523 8.200270330619194 8.037260533549457 0 0 0
229 1 23.116678555973355 6.803753833733748 6.7586533138951 0 0 0
230 1 23.054554762190076 9.505473754845239 9.42478653054918 0 0 0
231 1 25.807072568634446 6.791349040833671 9.565467341586542 0 0 0
232 1 25.863353123991565 9.505472199706054 6.780745163116231 0 0 0
234 1 27.212521105288214 8.150954563540195 8.188607938367628 0 0 0
237 1 28.511981505991066 6.71184460264933 6.825514554068844 0 0 0
238 1 28.548475997592558 9.506043664078039 9.594614210283964 0 0 0
239 1 31.23214949773554 6.750359625519442 9.507573904508318 0 0 0
240 1 31.14521783997513 9.411332403951903 6.855076619769697 0 0 0
243 1 2.664371974468522 10.802255791857215 8.150310908163283 0 0 0
245 1 1.2824720225753306 12.157744466373607 6.814215388992109 0 0 0
247 1 4.054609349436361 12.175954532398723 9.480362352935249 0 0 0
251 1 8.130663690762786 10.804352453639526 8.167574985517613 0 0 0
253 1 6.827037064606354 12.134474243641245 6.783156439541985 0 0 0
255 1 9.432085878541729 12.268619800768212 9.578564772523618 0 0 0
259 1 13.498351534577102 10.88180556769293 8.13806422334502 0 0 0
261 1 12.148872231644923 12.199813066156171 6.811527482259775 0 0 0
263 1 14.894725743499306 12.200898655864497 9.533291669295874 0 0 0
269 1 17.651489496200377 12.25616344615196 6.72559029303838 0 0 0
267 1 18.92529790202618 10.817738747617755 8.094819152936081 0 0 0
271 1 20.309737085286383 12.113713526010825 9.412350294818204 0 0 0
277 1 23.083198537971693 12.168183758899758 6.793092917272163 0 0 0
275 1 24.46814428491311 10.848895057804958 8.168380149304172 0 0 0
279 1 25.794376299435523 12.369197628178329 9.397458571131862 0 0 0
285 1 28.526954082030603 12.21085347440427 6.808295264136043 0 0 0
283 1 29.84265283717782 10.841011495514657 8.1748057194476 0 0 0
287 1 31.275736811611413 12.173225608732821 9.500703249977885 0 0 0
406 1 12.154617217166507 14.902746902171382 14.959405830048073 0 0 0
242 1 0.003727270688785516 13.55164443068635 8.161092252771915 0 0 0
246 1 1.4102794561866419 14.922552545779856 9.460392567463616 0 0 0
248 1 4.055881297010102 14.960519118696933 6.7652149278856974 0 0 0
250 1 5.369509166388988 13.547346333547 8.070582677829316 0 0 0
254 1 6.7457913753506284 14.921938434564094 9.434733691516751 0 0 0
256 1 9.47088305178849 14.957215954301388 6.806081250857675 0 0 0
258 1 10.851349413867492 13.551174515575777 8.184413040023209 0 0 0
262 1 12.276819420830039 14.879998172692526 9.537873365223618 0 0 0
264 1 14.952453119222067 14.926047416784822 6.78042617037476 0 0 0
266 1 16.286862612853486 13.491936440008896 8.088511671786495 0 0 0
270 1 17.535589279670614 14.87021770955474 9.566195839482791 0 0 0
272 1 20.33690745715402 14.92959505496243 6.719924699970027 0 0 0
274 1 21.680628609488778 13.518748423018424 8.068692505954417 0 0 0
278 1 22.991386441712947 14.926580577573514 9.423665164349426 0 0 0
280 1 25.80387073988625 14.926011077119922 6.74870920390302 0 0 0
282 1 27.239821610030454 13.666707475769906 8.068672769062104 0 0 0
286 1 28.60384639684629 14.957070720128584 9.484317222483293 0 0 0
288 1 31.299277344773053 14.849199997292427 6.721066840602948 0 0 0
292 1 2.6179756747542866 2.7199870153820496 10.838557159349174 0 0 0
293 1 1.286157556750517 1.2806511523792272 12.143866463182716 0 0 0
297 1 5.388507375274691 -0.009377211894979134 10.913176246425927 0 0 0
300 1 8.205218125492369 2.6258214935969337 10.939597745731895 0 0 0
301 1 6.755796116172974 1.3218715462506299 12.336332189293477 0 0 0
305 1 10.880705280643754 0.0018897139724704565 10.86586558067931 0 0 0
308 1 13.658048808655593 2.6646187895001665 10.930936619054279 0 0 0
309 1 12.298119056006458 1.2608043298726692 12.26326961904366 0 0 0
317 1 17.628490777616012 1.3001445755422403 12.166850047866514 0 0 0
316 1 19.03007846474627 2.7052060408724103 10.897622381484881 0 0 0
402 1 10.931028907358488 13.538654480373541 13.572134381373756 0 0 0
325 1 23.098365412276717 1.389657676221543 12.192563068890983 0 0 0
324 1 24.49618661550998 2.7587379329229327 10.853853570309798 0 0 0
333 1 28.50109892008522 1.2675466047171875 12.15559977220516 0 0 0
332 1 29.89363657599412 2.7062707084950346 10.887634299085171 0 0 0
337 1 32.58735361782252 5.396947181336708 10.961986369016243 -1 0 0
296 1 4.060087234657044 4.07102059840933 12.246984809678837 0 0 0
345 1 5.3561658202205455 5.374005720297922 10.851868790858466 0 0 0
304 1 9.528438058943882 4.008309380135308 12.302273733976273 0 0 0
353 1 10.743077921964668 5.416641282149717 10.953910159048107 0 0 0
312 1 14.978650713370909 4.01235773254277 12.2515142899102 0 0 0
361 1 16.314280543153366 5.379276169212244 10.906347872194264 0 0 0
320 1 20.40395855514743 4.019486814799382 12.20394644788504 0 0 0
369 1 21.70460092803848 5.487867077143489 10.849453396105627 0 0 0
328 1 25.88606466805288 4.05474540024165 12.286469515157178 0 0 0
377 1 27.189109052528828 5.435077267504009 10.902613944763305 0 0 0
336 1 31.11495683927278 4.064530450307246 12.26033978910734 0 0 0
340 1 2.623032485523612 8.110985408105115 10.854157786271028 0 0 0
341 1 1.3090758394237572 6.781417389114954 12.312149539222172 0 0 0
344 1 4.067355959497054 9.430477355270368 12.137885752167904 0 0 0
348 1 8.155899020941554 8.118466007080793 10.927866514478586 0 0 0
349 1 6.735729397066936 6.7567145923742515 12.231465354946756 0 0 0
352 1 9.492030408883645 9.474892825034454 12.187696566938849 0 0 0
356 1 13.631753807883516 8.180611593943322 10.848906006270767 0 0 0
357 1 12.201752277908067 6.85297888240364 12.204575698599704 0 0 0
360 1 14.920626092044238 9.55489088183907 12.251817767368074 0 0 0
365 1 17.744403535402093 6.744927481011625 12.2185302317655 0 0 0
364 1 19.007226804580693 8.12968981512527 10.782047343598297 0 0 0
368 1 20.366753578778354 9.431398183459281 12.200441016503506 0 0 0
373 1 23.022873853784102 6.801542204831935 12.217148670229562 0 0 0
372 1 24.33915027567117 8.145862413540684 10.865641927513483 0 0 0
376 1 25.76419945141886 9.560119677654255 12.216059711285066 0 0 0
381 1 28.489933902689028 6.903037121386803 12.242964695678419 0 0 0
380 1 29.918883293850964 8.163248571944234 10.8924579687995 0 0 0
384 1 31.133893247556614 9.556280332595193 12.271921867020929 0 0 0
389 1 1.4795349931119903 12.25816848785169 12.178249125547838 0 0 0
393 1 5.39956834699951 10.820725416661785 10.846756635762361 0 0 0
397 1 6.79060756234358 12.237362036602192 12.21306743522748 0 0 0
401 1 10.81874536920484 10.876541447051101 10.905020672412382 0 0 0
405 1 12.25264111356847 12.195850934359719 12.21960783868925 0 0 0
409 1 16.24176478601744 10.871851734682476 10.884670896010052 0 0 0
413 1 17.74453182991623 12.211135002999344 12.177716554382357 0 0 0
417 1 21.692523947279472 10.759120757941602 10.791668915282179 0 0 0
421 1 23.004344824493057 12.160259361626423 12.191837951180554 0 0 0
425 1 27.15598529186508 10.951634656326268 10.784145623222546 0 0 0
429 1 28.472774312350268 12.232717169296153 12.300293501757542 0 0 0
385 1 0.07570077151750354 10.81985735826009 10.972698104356658 0 0 0
388 1 2.831154721481953 13.601514946445796 10.822903112159969 0 0 0
398 1 6.777176503339392 14.926792152939608 14.855448619808994 0 0 0
392 1 4.032441048657432 14.923986715757824 12.192628957394643 0 0 0
396 1 8.108050168685917 13.628450916846395 10.892462448658677 0 0 0
1169 1 10.86276923305887 16.170698042981428 10.914973982600886 0 0 0
400 1 9.529715709598886 14.875995978753615 12.240283548857361 0 0 0
404 1 13.620624070687478 13.611662034457819 10.881393774569748 0 0 0
408 1 14.964816337088207 14.93221285155523 12.279032515211002 0 0 0
412 1 19.012591784129498 13.533742061782666 10.805827773627993 0 0 0
416 1 20.3060456020759 14.944291778123027 12.321140681863808 0 0 0
1185 1 21.659419818877865 16.25670415198714 10.931369226602978 0 0 0
420 1 24.354549992602404 13.616265626752611 10.877938973385424 0 0 0
424 1 25.767910202654488 14.967901846776593 12.164446448132404 0 0 0
1153 1 0.024658689665912448 16.181232617095425 10.844062443927793 0 0 0
428 1 29.886363407198267 13.504663470461729 10.845563838925777 0 0 0
432 1 31.267850584029084 14.89630739748744 12.212846415610748 0 0 0
291 1 2.6550458324575117 -0.015666411380871003 13.544421299853944 0 0 0
394 1 5.424626533534862 13.569932795298532 13.465491527172837 0 0 0
436 1 2.627136612444194 2.681538859834644 16.231538201743508 0 0 0
295 1 4.044188406874714 1.3492642117232074 14.88213429861685 0 0 0
298 1 5.4171802266445495 2.6922477057669756 13.591740190345732 0 0 0
299 1 8.19229041156228 0.042054480485600794 13.66992321423898 0 0 0
1017 1 5.489757652469051 16.170711097678684 5.40233169176988 0 0 0
303 1 9.502570535116195 1.4239460154195096 14.960857160886192 0 0 0
306 1 10.9336393976776 2.6930157922848164 13.62549437292345 0 0 0
532 1 2.719564340823691 13.611398751383932 16.288768284962998 0 0 0
43 1 29.833722283741732 0.06292981674340581 2.7452609515296142 0 0 0
311 1 14.917920387645887 1.4314700284009603 14.984518957472464 0 0 0
314 1 16.33470578302847 2.6993602213252603 13.609065263470404 0 0 0
386 1 0.07974114655008922 13.53154393403839 13.522220983272245 0 0 0
319 1 20.338014398230857 1.314703448394046 14.937875556090315 0 0 0
35 1 24.34180258895135 0.05553378870554582 2.7831318307690327 0 0 0
322 1 21.69769779167882 2.696036677390489 13.626510021612894 0 0 0
390 1 1.3228532751202222 14.936058680932302 14.904655322349551 0 0 0
323 1 24.394237143988708 0.04362619804917746 13.622839285976163 0 0 0
327 1 25.825968586091292 1.3261649716245094 14.92244239769616 0 0 0
330 1 27.184087232310343 2.668919947206901 13.564080454900587 0 0 0
290 1 32.590891802804855 2.7158372109073783 13.504143830398403 -1 0 0
427 1 29.85013464095142 10.884169176567413 13.68728068139392 0 0 0
335 1 31.20510204395711 1.3660189049492506 14.86812414517411 0 0 0
294 1 1.2867528120446767 4.003635138269844 14.933133661726952 0 0 0
339 1 2.715330264987553 5.408679543285776 13.659422855185301 0 0 0
302 1 6.761110577844397 4.065245061585275 14.97968970080284 0 0 0
347 1 8.11948211490701 5.376641296299741 13.587068082784121 0 0 0
497 1 10.715515408458913 5.433988856006843 16.28637550512239 0 0 0
310 1 12.234411544795623 4.16338439673169 15.009340097387684 0 0 0
355 1 13.555112347445728 5.473844015387669 13.459439714811012 0 0 0
318 1 17.66956614398503 4.058194033164633 14.897818877374586 0 0 0
505 1 16.29250273209415 5.4397033871013 16.17164870629877 0 0 0
363 1 19.06547467702802 5.431856767949268 13.545773678602538 0 0 0
326 1 23.136194366209992 4.047912029921774 14.906745476633382 0 0 0
899 1 24.542766186677337 16.226116890883183 2.719609860449869 0 0 0
371 1 24.548289050738777 5.460788653182714 13.572161717363366 0 0 0
334 1 28.504839738361095 4.062616965710497 14.917680112165844 0 0 0
379 1 29.819136609740454 5.5165113818523315 13.660226862257387 0 0 0
342 1 1.3239965137613317 9.472153252844198 15.001036497323891 0 0 0
484 1 2.6731539954824424 8.043179827533097 16.244370399203362 0 0 0
343 1 4.1277648980609625 6.758379538382972 14.917382257709342 0 0 0
346 1 5.444963413357572 8.116496663623838 13.527760711147101 0 0 0
350 1 6.764774022925254 9.48116074684972 14.91384544749537 0 0 0
351 1 9.474072482228696 6.8182103618364716 14.852163169236318 0 0 0
354 1 10.85935759033503 8.20275910310319 13.598229167615868 0 0 0
358 1 12.15352326887228 9.567596891917859 14.953561235714375 0 0 0
359 1 14.94014997221591 6.843808586808873 14.877810305428008 0 0 0
362 1 16.289315340904306 8.186050332050087 13.538243938400711 0 0 0
366 1 17.69342574893226 9.488838573125618 14.94327053060283 0 0 0
367 1 20.432124675142727 6.761960768082531 14.930236167510843 0 0 0
508 1 19.078175834177173 8.105003510910683 16.276895937925932 0 0 0
370 1 21.75332117439775 8.152152126517247 13.559618330165756 0 0 0
374 1 23.08060682132108 9.470950341542709 14.986628038081085 0 0 0
375 1 25.836301381662054 6.799389493339113 14.993951484664487 0 0 0
867 1 2.6979372271189495 16.26964172282058 2.6595896950393096 0 0 0
378 1 27.140618972093108 8.245858151041789 13.643316498739305 0 0 0
382 1 28.541776831725418 9.579452627884098 14.985929575568816 0 0 0
338 1 32.55512773472025 8.17448877884458 13.68328453795847 -1 0 0
383 1 31.197928150432162 6.795462629387144 15.06041972548085 0 0 0
431 1 31.33872614100634 12.17823855651873 14.936224639872195 0 0 0
387 1 2.688721623826121 10.759859603700589 13.557639353219301 0 0 0
419 1 24.42457578298724 10.863149327655844 13.550974794582089 0 0 0
391 1 4.064306612439262 12.225333574086857 14.848820411649143 0 0 0
537 1 5.383817808810836 10.817173941328514 16.223758235759444 0 0 0
395 1 8.138304419153569 10.920312829577894 13.54770061080633 0 0 0
399 1 9.482781621822165 12.143446563250253 14.88496418472099 0 0 0
403 1 13.554351962268997 10.937133904355395 13.62117599092294 0 0 0
407 1 15.02768811626346 12.230991354251922 14.902904188618066 0 0 0
423 1 25.785181537808167 12.254471940359199 14.951277265431427 0 0 0
411 1 19.046358025204714 10.789735470809081 13.535324303741731 0 0 0
415 1 20.390774958414678 12.154948340165392 14.87716829157334 0 0 0
500 1 13.504113514236048 8.180725193729065 16.25283594616838 0 0 0
540 1 8.120662896023259 13.546381791061032 16.241832313180133 0 0 0
548 1 13.567628445249339 13.623444252517587 16.27622457337081 0 0 0
556 1 19.032156489093616 13.489515293632488 16.241115961316403 0 0 0
116 1 13.577939826803616 13.524008419624888 -0.008769793638656154 0 0 0
881 1 10.847106543043047 16.28095258347449 0.0055246771833168395 0 0 0
28 1 18.971291032743302 2.6688043815067424 0.036029247748608384 0 0 0
33 1 21.738345886728354 0.06779028849452423 0.024021172826479642 0 0 0
113 1 10.89144157819392 10.94227714386572 0.06888376041675315 0 0 0
434 1 32.57097999735691 2.6992683299548608 18.954871635878362 -1 0 0
435 1 2.6479604391169613 0.015776088302853604 18.953106046764717 0 0 0
437 1 1.2220636419796176 1.3647228657425372 17.559968324553257 0 0 0
442 1 5.466006303029628 2.7545218185423033 18.926712857022732 0 0 0
443 1 8.070461818794707 0.049616671606978184 19.117563230638687 0 0 0
445 1 6.756753645109795 1.3483771135978189 17.602891987704673 0 0 0
858 1 27.19731010780896 13.515483543067916 29.87141409638632 0 0 0
450 1 10.796557098576244 2.7675365687196845 19.025376515961977 0 0 0
451 1 13.525934958943113 0.07511765701911088 19.05747638656943 0 0 0
453 1 12.1373965582904 1.4932186560216223 17.686258240700145 0 0 0
457 1 16.243022794458025 0.10386032882773762 16.2944534399606 0 0 0
458 1 16.31344650757665 2.813800015375191 18.992761938956328 0 0 0
461 1 17.68296268114023 1.4541213080932243 17.67295204883054 0 0 0
459 1 19.008693178294056 0.08842515753321833 19.04644916859644 0 0 0
466 1 21.719934797211508 2.7197686619119112 19.094804243620327 0 0 0
469 1 22.99584266813147 1.428068065472717 17.683281816953397 0 0 0
468 1 24.474784917356526 2.7132115519517193 16.33724758297116 0 0 0