

units metal
timestep 0.001
boundary p p p

lattice         diamond 5.43
Lattice spacing in x,y,z = 5.43 5.43 5.43
region          box block 0 ${N} 0 ${N} 0 ${N}
region          box block 0 4 0 ${N} 0 ${N}
region          box block 0 4 0 4 0 ${N}
region          box block 0 4 0 4 0 4
create_box      1 box
Created orthogonal box = (0 0 0) to (21.72 21.72 21.72)
  1 by 1 by 2 MPI processor grid
create_atoms    1 box
Created 512 atoms
  using lattice units in orthogonal box = (0 0 0) to (21.72 21.72 21.72)
  create_atoms CPU = 0.001 seconds

timestep ${dt}
timestep 0.0005

mass 1 28.0855
labelmap atom 1 Si

pair_style sw
pair_coeff * * Si.sw Si
Reading sw potential file Si.sw with DATE: 2007-06-11

thermo 100
thermo_style	custom step time dt temp pe ke press vol
thermo_modify	line one flush yes format 1 "ec %8lu" flush yes


velocity all create 300.0 4928459 mom yes rot yes dist gaussian

variable t equal time
fix myhalt all halt 100 v_t >= 30.0 error continue

fix NVE all nve

run 10000000

CITE-CITE-CITE-CITE-CITE-CITE-CITE-CITE-CITE-CITE-CITE-CITE-CITE

Your simulation uses code contributions which should be cited:

- Type Label Framework: https://doi.org/10.1021/acs.jpcb.3c08419

@Article{Gissinger24,
 author = {Jacob R. Gissinger, Ilia Nikiforov, Yaser Afshar, Brendon Waters, Moon-ki Choi, Daniel S. Karls, Alexander Stukowski, Wonpil Im, Hendrik Heinz, Axel Kohlmeyer, and Ellad B. Tadmor},
 title = {Type Label Framework for Bonded Force Fields in LAMMPS},
 journal = {J. Phys. Chem. B},
 year =    2024,
 volume =  128,
 number =  13,
 pages =   {3282--3297}
}

CITE-CITE-CITE-CITE-CITE-CITE-CITE-CITE-CITE-CITE-CITE-CITE-CITE

Neighbor list info ...
  update: every = 1 steps, delay = 0 steps, check = yes
  max neighbors/atom: 2000, page size: 100000
  master list distance cutoff = 5.77118
  ghost atom cutoff = 5.77118
  binsize = 2.88559, bins = 8 8 8
  1 neighbor lists, perpetual/occasional/extra = 1 0 0
  (1) pair sw, perpetual
      attributes: full, newton on
      pair build: full/bin/atomonly
      stencil: full/bin/3d
      bin: standard
Per MPI rank memory allocation (min/avg/max) = 3.237 | 3.237 | 3.237 Mbytes
   Step          Time            Dt            Temp          PotEng         KinEng         Press          Volume    
ec        0  0              0.0005         300           -2220.3383      19.81558       2598.169       10246.592    
ec      100  0.05           0.0005         90.67621      -2206.5065      5.989339       2204.9526      10246.592    
ec      200  0.1            0.0005         141.90533     -2209.8912      9.3731216      2564.9933      10246.592    
ec      300  0.15           0.0005         190.22947     -2213.0856      12.565025      2222.4928      10246.592    
ec      400  0.2            0.0005         125.71419     -2208.8214      8.3036653      2580.6198      10246.592    
ec      500  0.25           0.0005         139.59826     -2209.7394      9.2207353      2347.3888      10246.592    
ec      600  0.3            0.0005         151.02774     -2210.4947      9.9756745      2353.6735      10246.592    
ec      700  0.35           0.0005         145.4106      -2210.1232      9.6046515      2477.0087      10246.592    
ec      800  0.4            0.0005         128.81966     -2209.0273      8.5087878      2235.2498      10246.592    
ec      900  0.45           0.0005         166.64109     -2211.5259      11.006966      2586.4086      10246.592    
ec     1000  0.5            0.0005         152.20662     -2210.5726      10.053541      2287.9826      10246.592    
ec     1100  0.55           0.0005         129.88327     -2209.0972      8.5790415      2400.7145      10246.592    
ec     1200  0.6            0.0005         156.50231     -2210.8564      10.33728       2359.1735      10246.592    
ec     1300  0.65           0.0005         167.32813     -2211.5716      11.052346      2471.4324      10246.592    
ec     1400  0.7            0.0005         119.12593     -2208.3865      7.8684979      2325.3551      10246.592    
ec     1500  0.75           0.0005         169.45779     -2211.7122      11.193015      2518.8638      10246.592    
ec     1600  0.8            0.0005         159.15937     -2211.0321      10.512784      2316.6146      10246.592    
ec     1700  0.85           0.0005         129.8454      -2209.0947      8.5765398      2459.9614      10246.592    
ec     1800  0.9            0.0005         155.91916     -2210.8176      10.298762      2493.4978      10246.592    
ec     1900  0.95           0.0005         162.18893     -2211.2323      10.712892      2306.8379      10246.592    
ec     2000  1              0.0005         129.30749     -2209.0591      8.5410101      2512.6587      10246.592    
ec     2100  1.05           0.0005         130.84756     -2209.1613      8.6427342      2313.502       10246.592    
ec     2200  1.1            0.0005         161.38624     -2211.1791      10.659873      2425.3291      10246.592    
ec     2300  1.15           0.0005         144.38327     -2210.0553      9.5367943      2474.3718      10246.592    
ec     2400  1.2            0.0005         150.9119      -2210.487       9.9680227      2297.1416      10246.592    
ec     2500  1.25           0.0005         159.14703     -2211.031       10.511969      2424.3843      10246.592    
ec     2600  1.3            0.0005         139.14019     -2209.709       9.1904785      2380.5897      10246.592    
ec     2700  1.35           0.0005         170.44694     -2211.7774      11.25835       2507.6428      10246.592    
ec     2800  1.4            0.0005         161.70455     -2211.2001      10.680898      2257.2403      10246.592    
ec     2900  1.45           0.0005         149.72458     -2210.4082      9.8895979      2464.1854      10246.592    
ec     3000  1.5            0.0005         147.21595     -2210.2428      9.7238981      2417.1056      10246.592    
ec     3100  1.55           0.0005         152.31122     -2210.5794      10.060451      2404.3546      10246.592    
ec     3200  1.6            0.0005         143.41608     -2209.9914      9.4729093      2452.2213      10246.592    
ec     3300  1.65           0.0005         137.33205     -2209.5897      9.0710473      2362.3368      10246.592    
ec     3400  1.7            0.0005         162.55815     -2211.2566      10.73728       2359.9675      10246.592    
ec     3500  1.75           0.0005         129.61134     -2209.0791      8.5610795      2492.956       10246.592    
ec     3600  1.8            0.0005         168.22282     -2211.6307      11.111443      2436.0295      10246.592    
ec     3700  1.85           0.0005         155.22691     -2210.7722      10.253038      2310.7454      10246.592    
ec     3800  1.9            0.0005         149.84228     -2210.4157      9.8973723      2543.9535      10246.592    
ec     3900  1.95           0.0005         151.379       -2210.518       9.9988756      2300.1619      10246.592    
ec     4000  2              0.0005         156.76431     -2210.8736      10.354586      2524.3682      10246.592    
ec     4100  2.05           0.0005         154.53835     -2210.7266      10.207557      2359.1348      10246.592    
ec     4200  2.1            0.0005         131.9942      -2209.2367      8.7184719      2449.4353      10246.592    
ec     4300  2.15           0.0005         152.21505     -2210.5731      10.054098      2353.3267      10246.592    
ec     4400  2.2            0.0005         153.02562     -2210.6266      10.107638      2384.2171      10246.592    
ec     4500  2.25           0.0005         153.65455     -2210.6678      10.14918       2551.2611      10246.592    
ec     4600  2.3            0.0005         130.98292     -2209.1703      8.6516752      2244.0179      10246.592    
ec     4700  2.35           0.0005         172.59567     -2211.9194      11.400278      2599.3898      10246.592    
ec     4800  2.4            0.0005         117.82117     -2208.3007      7.7823161      2225.4626      10246.592    
ec     4900  2.45           0.0005         149.27033     -2210.3782      9.8595937      2623.5854      10246.592    
ec     5000  2.5            0.0005         148.79828     -2210.3476      9.828414       2301.2542      10246.592    
ec     5100  2.55           0.0005         137.96041     -2209.6308      9.112552       2431.5233      10246.592    
ec     5200  2.6            0.0005         152.83366     -2210.614       10.094959      2368.8278      10246.592    
ec     5300  2.65           0.0005         171.97076     -2211.8785      11.359002      2423.7662      10246.592    
ec     5400  2.7            0.0005         137.3702      -2209.5915      9.0735677      2500.3728      10246.592    
ec     5500  2.75           0.0005         156.7911      -2210.8755      10.356355      2263.535       10246.592    
ec     5600  2.8            0.0005         169.72268     -2211.7299      11.210512      2428.2805      10246.592    
ec     5700  2.85           0.0005         136.80768     -2209.5546      9.0364122      2419.888       10246.592    
ec     5800  2.9            0.0005         151.28163     -2210.5113      9.9924442      2418.7299      10246.592    
ec     5900  2.95           0.0005         150.97075     -2210.4911      9.9719097      2354.516       10246.592    
ec     6000  3              0.0005         155.89373     -2210.8157      10.297082      2538.6483      10246.592    
ec     6100  3.05           0.0005         135.87592     -2209.4936      8.9748676      2213.1402      10246.592    
ec     6200  3.1            0.0005         161.68064     -2211.1981      10.679319      2580.9242      10246.592    
ec     6300  3.15           0.0005         151.18247     -2210.5049      9.9858946      2284.3213      10246.592    
ec     6400  3.2            0.0005         164.42488     -2211.3797      10.860581      2429.5258      10246.592    
ec     6500  3.25           0.0005         130.02168     -2209.1064      8.5881837      2365.8415      10246.592    
ec     6600  3.3            0.0005         151.43195     -2210.5213      10.002373      2378.1653      10246.592    
ec     6700  3.35           0.0005         166.15727     -2211.4941      10.975009      2470.9305      10246.592    
ec     6800  3.4            0.0005         127.64632     -2208.9496      8.431286       2340.9206      10246.592    
ec     6900  3.45           0.0005         159.24927     -2211.0379      10.518722      2482.885       10246.592    
ec     7000  3.5            0.0005         148.39265     -2210.3203      9.8016213      2322.3723      10246.592    
ec     7100  3.55           0.0005         145.50585     -2210.1296      9.6109427      2425.2783      10246.592    
ec     7200  3.6            0.0005         160.15675     -2211.0977      10.578663      2420.5927      10246.592    
ec     7300  3.65           0.0005         145.80478     -2210.1493      9.6306879      2412.4491      10246.592    
ec     7400  3.7            0.0005         148.98127     -2210.3593      9.8405012      2383.2404      10246.592    
ec     7500  3.75           0.0005         151.85476     -2210.5494      10.030301      2302.4361      10246.592    
ec     7600  3.8            0.0005         145.66433     -2210.1396      9.6214109      2624.496       10246.592    
ec     7700  3.85           0.0005         139.35683     -2209.7239      9.2047883      2207.701       10246.592    
ec     7800  3.9            0.0005         135.37287     -2209.46        8.9416401      2415.0373      10246.592    
ec     7900  3.95           0.0005         154.4144      -2210.718       10.199369      2505.158       10246.592    
ec     8000  4              0.0005         163.4651      -2211.3166      10.797186      2352.6034      10246.592    
ec     8100  4.05           0.0005         124.02083     -2208.7099      8.1918154      2356.3936      10246.592    
ec     8200  4.1            0.0005         171.27174     -2211.8321      11.312829      2479.493       10246.592    
ec     8300  4.15           0.0005         156.10113     -2210.8298      10.310781      2353.7943      10246.592    
ec     8400  4.2            0.0005         131.78601     -2209.223       8.704721       2329.0769      10246.592    
ec     8500  4.25           0.0005         169.29872     -2211.7016      11.182508      2543.6201      10246.592    
ec     8600  4.3            0.0005         144.86145     -2210.0875      9.5683786      2236.749       10246.592    
ec     8700  4.35           0.0005         142.24595     -2209.9141      9.3956201      2468.7502      10246.592    
ec     8800  4.4            0.0005         152.47643     -2210.5901      10.071363      2365.4097      10246.592    
ec     8900  4.45           0.0005         166.72967     -2211.5321      11.012817      2369.962       10246.592    
ec     9000  4.5            0.0005         136.95682     -2209.5648      9.0462629      2380.9241      10246.592    
ec     9100  4.55           0.0005         158.42344     -2210.983       10.464175      2409.3023      10246.592    
ec     9200  4.6            0.0005         163.5049      -2211.3191      10.799815      2377.4716      10246.592    
ec     9300  4.65           0.0005         127.35128     -2208.9302      8.4117987      2289.4408      10246.592    
ec     9400  4.7            0.0005         151.91094     -2210.5525      10.034011      2559.297       10246.592    
ec     9500  4.75           0.0005         151.54489     -2210.5289      10.009833      2277.4622      10246.592    
ec     9600  4.8            0.0005         144.01735     -2210.0314      9.5126247      2392.0993      10246.592    
ec     9700  4.85           0.0005         146.50853     -2210.1958      9.6771715      2402.9178      10246.592    
ec     9800  4.9            0.0005         173.55767     -2211.9831      11.46382       2400.3597      10246.592    
ec     9900  4.95           0.0005         149.16777     -2210.3716      9.85282        2347.3044      10246.592    
ec    10000  5              0.0005         142.41177     -2209.9252      9.4065727      2411.0832      10246.592    
ec    10100  5.05           0.0005         159.13192     -2211.03        10.510971      2360.5804      10246.592    
ec    10200  5.1            0.0005         145.69584     -2210.1422      9.6234921      2397.6606      10246.592    
ec    10300  5.15           0.0005         148.62255     -2210.3354      9.816807       2560.6042      10246.592    
ec    10400  5.2            0.0005         133.89323     -2209.3626      8.8439065      2275.1479      10246.592    
ec    10500  5.25           0.0005         148.10876     -2210.3018      9.7828698      2430.9473      10246.592    
ec    10600  5.3            0.0005         130.60505     -2209.1448      8.6267161      2398.9133      10246.592    
ec    10700  5.35           0.0005         162.34895     -2211.2425      10.723462      2424.3916      10246.592    
ec    10800  5.4            0.0005         147.31039     -2210.2492      9.7301364      2274.678       10246.592    
ec    10900  5.45           0.0005         144.36728     -2210.0541      9.5357381      2510.8103      10246.592    
ec    11000  5.5            0.0005         149.35239     -2210.3839      9.8650143      2243.9717      10246.592    
ec    11100  5.55           0.0005         163.37838     -2211.3105      10.791458      2432.4758      10246.592    
ec    11200  5.6            0.0005         142.29191     -2209.9172      9.398656       2412.0504      10246.592    
ec    11300  5.65           0.0005         143.57663     -2210.0021      9.483514       2399.6032      10246.592    
ec    11400  5.7            0.0005         170.6418      -2211.7907      11.271221      2348.1864      10246.592    
ec    11500  5.75           0.0005         134.63429     -2209.4111      8.8928552      2370.0451      10246.592    
ec    11600  5.8            0.0005         164.38104     -2211.3767      10.857686      2488.0006      10246.592    
ec    11700  5.85           0.0005         151.9279      -2210.554       10.035132      2240.0314      10246.592    
ec    11800  5.9            0.0005         143.90464     -2210.0237      9.5051795      2523.9727      10246.592    
ec    11900  5.95           0.0005         148.36631     -2210.3188      9.7998817      2292.7394      10246.592    
ec    12000  6              0.0005         156.81391     -2210.8767      10.357862      2438.9238      10246.592    
ec    12100  6.05           0.0005         144.34456     -2210.0528      9.5342373      2450.1048      10246.592    
ec    12200  6.1            0.0005         139.32178     -2209.7213      9.2024733      2359.934       10246.592    
ec    12300  6.15           0.0005         157.44896     -2210.9187      10.399808      2439.455       10246.592    
ec    12400  6.2            0.0005         137.55156     -2209.604       9.0855467      2394.0016      10246.592    
ec    12500  6.25           0.0005         163.60521     -2211.3255      10.80644       2415.903       10246.592    
ec    12600  6.3            0.0005         167.5697      -2211.5875      11.068303      2415.6416      10246.592    
ec    12700  6.35           0.0005         143.26189     -2209.9814      9.4627246      2331.8473      10246.592    
ec    12800  6.4            0.0005         151.18095     -2210.5046      9.9857941      2385.7486      10246.592    
ec    12900  6.45           0.0005         153.57085     -2210.6625      10.143652      2450.241       10246.592    
ec    13000  6.5            0.0005         147.56881     -2210.266       9.7472055      2319.6909      10246.592    
ec    13100  6.55           0.0005         136.90672     -2209.5615      9.0429535      2440.1641      10246.592    
ec    13200  6.6            0.0005         144.67708     -2210.0749      9.5562006      2378.6252      10246.592    
ec    13300  6.65           0.0005         149.14691     -2210.3703      9.8514417      2437.7986      10246.592    
ec    13400  6.7            0.0005         139.63686     -2209.7419      9.2232847      2333.6725      10246.592    
ec    13500  6.75           0.0005         164.48045     -2211.3833      10.864252      2492.4932      10246.592    
ec    13600  6.8            0.0005         150.61987     -2210.4676      9.9487337      2398.9556      10246.592    
ec    13700  6.85           0.0005         136.24858     -2209.5181      8.9994822      2315.9189      10246.592    
ec    13800  6.9            0.0005         169.04412     -2211.6849      11.165691      2505.6508      10246.592    
ec    13900  6.95           0.0005         141.63752     -2209.874       9.3554321      2377.0273      10246.592    
ec    14000  7              0.0005         138.71937     -2209.6812      9.162683       2443.1792      10246.592    
ec    14100  7.05           0.0005         152.69861     -2210.6052      10.086039      2372.7332      10246.592    
ec    14200  7.1            0.0005         151.31134     -2210.513       9.9944069      2453.3752      10246.592    
ec    14300  7.15           0.0005         146.40941     -2210.1894      9.6706248      2387.1772      10246.592    
ec    14400  7.2            0.0005         161.69267     -2211.1992      10.680113      2421.5177      10246.592    
ec    14500  7.25           0.0005         138.49995     -2209.6666      9.1481899      2391.0648      10246.592    
ec    14600  7.3            0.0005         155.80868     -2210.8106      10.291464      2363.7232      10246.592    
ec    14700  7.35           0.0005         142.592       -2209.9371      9.4184772      2413.9447      10246.592    
ec    14800  7.4            0.0005         160.65062     -2211.1303      10.611284      2403.5074      10246.592    
ec    14900  7.45           0.0005         142.67951     -2209.943       9.4242578      2315.729       10246.592    
ec    15000  7.5            0.0005         153.04395     -2210.6278      10.108849      2379.4199      10246.592    
ec    15100  7.55           0.0005         156.57258     -2210.8608      10.341922      2416.3614      10246.592    
ec    15200  7.6            0.0005         153.35876     -2210.6484      10.129643      2459.3732      10246.592    
ec    15300  7.65           0.0005         156.39843     -2210.8496      10.330419      2267.601       10246.592    
ec    15400  7.7            0.0005         153.42692     -2210.6528      10.134144      2499.8572      10246.592    
ec    15500  7.75           0.0005         155.93321     -2210.8187      10.29969       2344.8585      10246.592    
ec    15600  7.8            0.0005         144.34318     -2210.0528      9.5341462      2489.1359      10246.592    
ec    15700  7.85           0.0005         134.43671     -2209.3983      8.8798045      2355.9832      10246.592    
ec    15800  7.9            0.0005         159.38596     -2211.0467      10.527751      2519.6287      10246.592    
ec    15900  7.95           0.0005         141.0097      -2209.8328      9.3139633      2335.688       10246.592    
ec    16000  8              0.0005         138.30431     -2209.6538      9.1352671      2435.4829      10246.592    
ec    16100  8.05           0.0005         153.34446     -2210.6474      10.128698      2467.9905      10246.592    
ec    16200  8.1            0.0005         153.43034     -2210.6534      10.134371      2306.9837      10246.592    
ec    16300  8.15           0.0005         151.74026     -2210.5415      10.022738      2479.5364      10246.592    
ec    16400  8.2            0.0005         144.61776     -2210.0711      9.552283       2251.7728      10246.592    
ec    16500  8.25           0.0005         159.05893     -2211.025       10.50615       2573.4485      10246.592    
ec    16600  8.3            0.0005         137.62106     -2209.6088      9.0901374      2210.0602      10246.592    
ec    16700  8.35           0.0005         160.05428     -2211.0908      10.571894      2544.4638      10246.592    
ec    16800  8.4            0.0005         136.35271     -2209.5251      9.0063599      2265.4442      10246.592    
ec    16900  8.45           0.0005         146.93042     -2210.2237      9.7050381      2439.1249      10246.592    
ec    17000  8.5            0.0005         152.81258     -2210.6124      10.093566      2464.1827      10246.592    
ec    17100  8.55           0.0005         157.57177     -2210.9269      10.40792       2334.3146      10246.592    
ec    17200  8.6            0.0005         145.61098     -2210.1366      9.6178866      2368.8996      10246.592    
ec    17300  8.65           0.0005         154.97244     -2210.7551      10.236229      2445.3802      10246.592    
ec    17400  8.7            0.0005         155.41756     -2210.7847      10.265631      2395.4435      10246.592    
ec    17500  8.75           0.0005         142.17107     -2209.9093      9.3906744      2442.9559      10246.592    
ec    17600  8.8            0.0005         146.78274     -2210.214       9.695284       2406.7035      10246.592    
ec    17700  8.85           0.0005         156.7473      -2210.8725      10.353462      2303.7074      10246.592    
ec    17800  8.9            0.0005         153.75262     -2210.6744      10.155658      2558.1402      10246.592    
ec    17900  8.95           0.0005         138.77196     -2209.6847      9.1661564      2309.2967      10246.592    
ec    18000  9              0.0005         161.89244     -2211.2123      10.693308      2454.9362      10246.592    
ec    18100  9.05           0.0005         150.14551     -2210.4363      9.9174016      2283.4909      10246.592    
ec    18200  9.1            0.0005         159.4558      -2211.0513      10.532364      2507.5874      10246.592    
ec    18300  9.15           0.0005         139.71585     -2209.7472      9.2285024      2311.7518      10246.592    
ec    18400  9.2            0.0005         142.44967     -2209.9278      9.4090762      2375.6841      10246.592    
ec    18500  9.25           0.0005         156.40256     -2210.8496      10.330692      2490.9974      10246.592    
ec    18600  9.3            0.0005         132.98226     -2209.3023      8.7837353      2296.3426      10246.592    
ec    18700  9.35           0.0005         170.8459      -2211.8041      11.284702      2435.3742      10246.592    
ec    18800  9.4            0.0005         135.39105     -2209.4611      8.9428407      2449.4079      10246.592    
ec    18900  9.45           0.0005         154.41006     -2210.718       10.199083      2374.1523      10246.592    
ec    19000  9.5            0.0005         168.52444     -2211.6507      11.131365      2370.3926      10246.592    
ec    19100  9.55           0.0005         145.43654     -2210.1249      9.6063648      2458.5286      10246.592    
ec    19200  9.6            0.0005         144.09574     -2210.0365      9.5178026      2393.7826      10246.592    
ec    19300  9.65           0.0005         153.77002     -2210.6758      10.156807      2384.2087      10246.592    
ec    19400  9.7            0.0005         139.91465     -2209.7602      9.2416331      2399.3228      10246.592    
ec    19500  9.75           0.0005         147.72137     -2210.276       9.7572821      2463.0355      10246.592    
ec    19600  9.8            0.0005         148.78687     -2210.3467      9.8276604      2304.7841      10246.592    
ec    19700  9.85           0.0005         147.54692     -2210.2644      9.7457596      2516.1872      10246.592    
ec    19800  9.9            0.0005         136.39093     -2209.5274      9.0088846      2315.1719      10246.592    
ec    19900  9.95           0.0005         159.98471     -2211.0864      10.567299      2396.6165      10246.592    
ec    20000  10             0.0005         159.55697     -2211.0581      10.539046      2415.0663      10246.592    
ec    20100  10.05          0.0005         131.76769     -2209.2217      8.7035107      2445.3867      10246.592    
ec    20200  10.1           0.0005         153.31809     -2210.6459      10.126956      2399.8594      10246.592    
ec    20300  10.15          0.0005         154.31718     -2210.7121      10.192948      2370.8721      10246.592    
ec    20400  10.2           0.0005         134.3269      -2209.3908      8.8725519      2437.4274      10246.592    
ec    20500  10.25          0.0005         172.96173     -2211.9438      11.424457      2430.2144      10246.592    
ec    20600  10.3           0.0005         145.67104     -2210.1407      9.6218537      2316.8618      10246.592    
ec    20700  10.35          0.0005         144.60284     -2210.0699      9.5512975      2486.7645      10246.592    
ec    20800  10.4           0.0005         162.91038     -2211.2796      10.760545      2390.3025      10246.592    
ec    20900  10.45          0.0005         154.47897     -2210.7226      10.203635      2363.7524      10246.592    
ec    21000  10.5           0.0005         149.05891     -2210.3644      9.8456294      2440.5819      10246.592    
ec    21100  10.55          0.0005         139.74609     -2209.7491      9.2304995      2407.2589      10246.592    
ec    21200  10.6           0.0005         163.73039     -2211.334       10.814709      2412.7489      10246.592    
ec    21300  10.65          0.0005         133.37373     -2209.3281      8.8095931      2313.3294      10246.592    
ec    21400  10.7           0.0005         155.03027     -2210.7586      10.240049      2577.532       10246.592    
ec    21500  10.75          0.0005         156.66471     -2210.8674      10.348007      2239.3483      10246.592    
ec    21600  10.8           0.0005         141.55926     -2209.8687      9.3502627      2482.9265      10246.592    
ec    21700  10.85          0.0005         148.28369     -2210.3132      9.7944243      2380.8916      10246.592    
ec    21800  10.9           0.0005         171.83385     -2211.8692      11.349958      2461.6561      10246.592    
ec    21900  10.95          0.0005         129.28259     -2209.0579      8.5393651      2319.4266      10246.592    
ec    22000  11             0.0005         145.84416     -2210.1517      9.6332891      2573.9012      10246.592    
ec    22100  11.05          0.0005         148.849       -2210.3509      9.8317644      2267.299       10246.592    
ec    22200  11.1           0.0005         140.70926     -2209.8126      9.2941186      2459.4184      10246.592    
ec    22300  11.15          0.0005         151.68352     -2210.5378      10.01899       2457.1115      10246.592    
ec    22400  11.2           0.0005         152.97567     -2210.6234      10.104339      2305.1319      10246.592    
ec    22500  11.25          0.0005         144.65207     -2210.073       9.5545488      2493.8065      10246.592    
ec    22600  11.3           0.0005         154.01602     -2210.6922      10.173056      2225.4721      10246.592    
ec    22700  11.35          0.0005         163.48477     -2211.3173      10.798485      2569.2804      10246.592    
ec    22800  11.4           0.0005         139.45299     -2209.73        9.21114        2177.2159      10246.592    
ec    22900  11.45          0.0005         161.22416     -2211.1682      10.649167      2518.1603      10246.592    
ec    23000  11.5           0.0005         134.77533     -2209.4206      8.9021711      2369.9307      10246.592    
ec    23100  11.55          0.0005         153.99625     -2210.6907      10.17175       2356.5216      10246.592    
ec    23200  11.6           0.0005         151.41932     -2210.5204      10.001539      2436.341       10246.592    
ec    23300  11.65          0.0005         143.87136     -2210.0216      9.5029814      2334.2617      10246.592    
ec    23400  11.7           0.0005         166.03332     -2211.4859      10.966822      2496.2316      10246.592    
ec    23500  11.75          0.0005         140.03617     -2209.7683      9.2496601      2359.3259      10246.592    
ec    23600  11.8           0.0005         158.59623     -2210.9946      10.475588      2395.295       10246.592    
ec    23700  11.85          0.0005         152.64712     -2210.6015      10.082638      2399.8281      10246.592    
ec    23800  11.9           0.0005         137.42428     -2209.5956      9.0771393      2426.1726      10246.592    
ec    23900  11.95          0.0005         156.77927     -2210.8747      10.355574      2367.0614      10246.592    
ec    24000  12             0.0005         147.04633     -2210.2314      9.7126945      2384.2409      10246.592    
ec    24100  12.05          0.0005         152.87812     -2210.6167      10.097896      2433.0872      10246.592    
ec    24200  12.1           0.0005         153.26878     -2210.6426      10.123699      2407.3083      10246.592    
ec    24300  12.15          0.0005         144.11256     -2210.0375      9.5189133      2396.3739      10246.592    
ec    24400  12.2           0.0005         160.11957     -2211.0953      10.576207      2404.3051      10246.592    
ec    24500  12.25          0.0005         147.4283      -2210.2566      9.7379245      2425.975       10246.592    
ec    24600  12.3           0.0005         152.82591     -2210.6134      10.094447      2363.4955      10246.592    
ec    24700  12.35          0.0005         146.2054      -2210.1758      9.6571497      2456.7357      10246.592    
ec    24800  12.4           0.0005         141.44854     -2209.8619      9.3429499      2350.4175      10246.592    
ec    24900  12.45          0.0005         155.72432     -2210.8048      10.285892      2441.6686      10246.592    
ec    25000  12.5           0.0005         139.60286     -2209.7395      9.2210388      2421.0026      10246.592    
ec    25100  12.55          0.0005         156.04294     -2210.826       10.306938      2345.8982      10246.592    
ec    25200  12.6           0.0005         151.08587     -2210.4983      9.9795141      2456.1669      10246.592    
ec    25300  12.65          0.0005         149.21321     -2210.3746      9.8558209      2371.9047      10246.592    
ec    25400  12.7           0.0005         155.17472     -2210.7685      10.249591      2478.9629      10246.592    
ec    25500  12.75          0.0005         139.84264     -2209.7556      9.2368771      2303.8824      10246.592    
ec    25600  12.8           0.0005         147.47267     -2210.2596      9.7408553      2422.1622      10246.592    
ec    25700  12.85          0.0005         149.4623      -2210.391       9.8722737      2497.5222      10246.592    
ec    25800  12.9           0.0005         143.64332     -2210.0067      9.4879188      2323.5143      10246.592    
ec    25900  12.95          0.0005         146.59439     -2210.2016      9.6828428      2426.8741      10246.592    
ec    26000  13             0.0005         150.76097     -2210.477       9.9580536      2328.9949      10246.592    
ec    26100  13.05          0.0005         150.72181     -2210.474       9.955467       2503.377       10246.592    
ec    26200  13.1           0.0005         156.57046     -2210.861       10.341782      2242.0171      10246.592    
ec    26300  13.15          0.0005         159.11744     -2211.0289      10.510014      2505.3986      10246.592    
ec    26400  13.2           0.0005         145.09566     -2210.1025      9.5838487      2377.2051      10246.592    
ec    26500  13.25          0.0005         161.47333     -2211.1848      10.665626      2354.2733      10246.592    
ec    26600  13.3           0.0005         141.46035     -2209.8624      9.3437296      2383.2618      10246.592    
ec    26700  13.35          0.0005         155.68791     -2210.8024      10.283488      2477.7215      10246.592    
ec    26800  13.4           0.0005         145.48398     -2210.1283      9.6094986      2273.1107      10246.592    
ec    26900  13.45          0.0005         158.1993      -2210.9682      10.44937       2453.1773      10246.592    
ec    27000  13.5           0.0005         152.1277      -2210.5671      10.048329      2406.649       10246.592    
ec    27100  13.55          0.0005         139.69638     -2209.7459      9.2272162      2277.2917      10246.592    
ec    27200  13.6           0.0005         169.06453     -2211.6862      11.167039      2471.337       10246.592    
ec    27300  13.65          0.0005         135.22052     -2209.4501      8.9315768      2318.203       10246.592    
ec    27400  13.7           0.0005         149.11132     -2210.3678      9.8490913      2484.193       10246.592    
ec    27500  13.75          0.0005         146.68496     -2210.2078      9.6888255      2280.4271      10246.592    
ec    27600  13.8           0.0005         152.53881     -2210.5942      10.075483      2517.0923      10246.592    
ec    27700  13.85          0.0005         135.49047     -2209.468       8.9494079      2321.6386      10246.592    
ec    27800  13.9           0.0005         158.24968     -2210.9717      10.452698      2412.8196      10246.592    
ec    27900  13.95          0.0005         151.82798     -2210.5473      10.028532      2411.4964      10246.592    
ec    28000  14             0.0005         144.85767     -2210.0867      9.5681296      2430.1943      10246.592    
ec    28100  14.05          0.0005         158.73699     -2211.0041      10.484885      2318.3792      10246.592    
ec    28200  14.1           0.0005         144.4777      -2210.0617      9.5430314      2417.8342      10246.592    
ec    28300  14.15          0.0005         134.31615     -2209.39        8.8718416      2397.5639      10246.592    
ec    28400  14.2           0.0005         157.19857     -2210.9024      10.38327       2369.2694      10246.592    
ec    28500  14.25          0.0005         147.11653     -2210.2362      9.7173313      2393.1272      10246.592    
ec    28600  14.3           0.0005         133.61433     -2209.3437      8.8254848      2415.9085      10246.592    
ec    28700  14.35          0.0005         170.76252     -2211.7986      11.279195      2392.0405      10246.592    
ec    28800  14.4           0.0005         147.72426     -2210.2762      9.7574732      2359.5359      10246.592    
ec    28900  14.45          0.0005         151.93612     -2210.5545      10.035675      2408.9938      10246.592    
ec    29000  14.5           0.0005         154.46346     -2210.7215      10.20261       2378.4392      10246.592    
ec    29100  14.55          0.0005         149.48479     -2210.3926      9.8737597      2368.1095      10246.592    
ec    29200  14.6           0.0005         152.9949      -2210.6245      10.105609      2364.268       10246.592    
ec    29300  14.65          0.0005         144.85733     -2210.0867      9.5681068      2425.3641      10246.592    
ec    29400  14.7           0.0005         157.31962     -2210.9103      10.391265      2401.3567      10246.592    
ec    29500  14.75          0.0005         129.81277     -2209.093       8.5743842      2334.9125      10246.592    
ec    29600  14.8           0.0005         165.07988     -2211.4227      10.903845      2501.7762      10246.592    
ec    29700  14.85          0.0005         142.88241     -2209.9563      9.4376593      2324.9974      10246.592    
ec    29800  14.9           0.0005         155.34421     -2210.7797      10.260786      2440.1744      10246.592    
ec    29900  14.95          0.0005         151.17453     -2210.5042      9.9853699      2381.7265      10246.592    
ec    30000  15             0.0005         140.70791     -2209.8125      9.2940294      2401.466       10246.592    
ec    30100  15.05          0.0005         166.21056     -2211.4979      10.978529      2358.2377      10246.592    
ec    30200  15.1           0.0005         137.65854     -2209.6109      9.0926126      2407.2247      10246.592    
ec    30300  15.15          0.0005         156.01499     -2210.8241      10.305092      2392.1355      10246.592    
ec    30400  15.2           0.0005         153.49207     -2210.6577      10.138448      2260.5129      10246.592    
ec    30500  15.25          0.0005         140.55052     -2209.8018      9.2836337      2526.0944      10246.592    
ec    30600  15.3           0.0005         164.9617      -2211.4153      10.896039      2337.7623      10246.592    
ec    30700  15.35          0.0005         147.57937     -2210.2667      9.7479027      2372.3077      10246.592    
ec    30800  15.4           0.0005         145.32153     -2210.1174      9.5987679      2449.3758      10246.592    
ec    30900  15.45          0.0005         152.58825     -2210.5978      10.078749      2309.1375      10246.592    
ec    31000  15.5           0.0005         143.2139      -2209.9781      9.4595553      2493.9732      10246.592    
ec    31100  15.55          0.0005         149.51746     -2210.3948      9.8759174      2355.6422      10246.592    
ec    31200  15.6           0.0005         140.46609     -2209.7967      9.2780567      2399.8583      10246.592    
ec    31300  15.65          0.0005         145.47242     -2210.1274      9.6087344      2409.1352      10246.592    
ec    31400  15.7           0.0005         148.43389     -2210.3232      9.8043455      2387.9623      10246.592    
ec    31500  15.75          0.0005         152.24003     -2210.5745      10.055749      2354.9406      10246.592    
ec    31600  15.8           0.0005         150.59875     -2210.466       9.9473386      2424.5752      10246.592    
ec    31700  15.85          0.0005         159.16864     -2211.0325      10.513397      2414.2384      10246.592    
ec    31800  15.9           0.0005         137.20158     -2209.5811      9.0624294      2331.305       10246.592    
ec    31900  15.95          0.0005         159.21786     -2211.0355      10.516648      2465.5583      10246.592    
ec    32000  16             0.0005         141.54932     -2209.8683      9.3496062      2324.7154      10246.592    
ec    32100  16.05          0.0005         154.17525     -2210.7024      10.183573      2432.5801      10246.592    
ec    32200  16.1           0.0005         137.89557     -2209.627       9.1082694      2246.161       10246.592    
ec    32300  16.15          0.0005         160.29415     -2211.1066      10.587739      2498.6056      10246.592    
ec    32400  16.2           0.0005         147.70828     -2210.2752      9.7564174      2288.1144      10246.592    
ec    32500  16.25          0.0005         162.04078     -2211.2221      10.703107      2423.1263      10246.592    
ec    32600  16.3           0.0005         158.19693     -2210.9682      10.449213      2367.5246      10246.592    
ec    32700  16.35          0.0005         136.59649     -2209.5409      9.0224624      2347.3196      10246.592    
ec    32800  16.4           0.0005         163.98675     -2211.3507      10.831642      2433.6236      10246.592    
ec    32900  16.45          0.0005         145.48457     -2210.1282      9.6095373      2397.1809      10246.592    
ec    33000  16.5           0.0005         146.78426     -2210.2141      9.6953841      2418.9931      10246.592    
ec    33100  16.55          0.0005         146.37486     -2210.1873      9.6683426      2277.1706      10246.592    
ec    33200  16.6           0.0005         153.13055     -2210.6331      10.114569      2495.8578      10246.592    
ec    33300  16.65          0.0005         149.86425     -2210.4178      9.8988238      2327.0568      10246.592    
ec    33400  16.7           0.0005         151.89697     -2210.5519      10.033089      2381.4422      10246.592    
ec    33500  16.75          0.0005         145.46746     -2210.1271      9.6084071      2330.6343      10246.592    
ec    33600  16.8           0.0005         147.57576     -2210.2663      9.7476644      2489.9985      10246.592    
ec    33700  16.85          0.0005         147.78875     -2210.2807      9.7617331      2296.5532      10246.592    
ec    33800  16.9           0.0005         146.62528     -2210.2035      9.6848836      2397.1236      10246.592    
ec    33900  16.95          0.0005         147.97904     -2210.293       9.7743021      2424.3219      10246.592    
ec    34000  17             0.0005         149.41667     -2210.3883      9.8692601      2325.3631      10246.592    
ec    34100  17.05          0.0005         152.48546     -2210.5906      10.07196       2449.6025      10246.592    
ec    34200  17.1           0.0005         149.35232     -2210.3838      9.8650096      2341.7655      10246.592    
ec    34300  17.15          0.0005         161.90848     -2211.2134      10.694368      2409.5574      10246.592    
ec    34400  17.2           0.0005         135.82158     -2209.4898      8.9712784      2295.3958      10246.592    
ec    34500  17.25          0.0005         157.81571     -2210.9429      10.424033      2461.2778      10246.592    
ec    34600  17.3           0.0005         144.18064     -2210.0422      9.5234104      2353.7186      10246.592    
ec    34700  17.35          0.0005         145.55755     -2210.1331      9.6143579      2347.4816      10246.592    
ec    34800  17.4           0.0005         151.58016     -2210.531       10.012163      2420.3626      10246.592    
ec    34900  17.45          0.0005         143.20621     -2209.9778      9.4590471      2386.7963      10246.592    
ec    35000  17.5           0.0005         147.40791     -2210.2553      9.7365778      2355.6248      10246.592    
ec    35100  17.55          0.0005         158.78186     -2211.0068      10.487849      2418.2978      10246.592    
ec    35200  17.6           0.0005         147.28703     -2210.2473      9.7285932      2381.0622      10246.592    
ec    35300  17.65          0.0005         150.93285     -2210.4883      9.9694067      2336.771       10246.592    
ec    35400  17.7           0.0005         155.5516      -2210.7935      10.274484      2351.4161      10246.592    
ec    35500  17.75          0.0005         144.3759      -2210.0548      9.5363073      2502.5546      10246.592    
ec    35600  17.8           0.0005         152.14751     -2210.5687      10.049638      2267.7076      10246.592    
ec    35700  17.85          0.0005         146.44444     -2210.1916      9.6729388      2400.8531      10246.592    
ec    35800  17.9           0.0005         150.91301     -2210.4869      9.9680965      2425.151       10246.592    
ec    35900  17.95          0.0005         147.20771     -2210.2422      9.7233542      2291.7896      10246.592    
ec    36000  18             0.0005         163.88982     -2211.3441      10.82524       2527.3085      10246.592    
ec    36100  18.05          0.0005         142.85708     -2209.9548      9.4359861      2254.1114      10246.592    
ec    36200  18.1           0.0005         164.05923     -2211.3555      10.836429      2474.7912      10246.592    
ec    36300  18.15          0.0005         143.67765     -2210.0088      9.490187       2368.7077      10246.592    
ec    36400  18.2           0.0005         158.59365     -2210.9944      10.475417      2427.2307      10246.592    
ec    36500  18.25          0.0005         141.16681     -2209.8432      9.3243406      2328.8256      10246.592    
ec    36600  18.3           0.0005         145.95704     -2210.1592      9.6407445      2455.6328      10246.592    
ec    36700  18.35          0.0005         153.6171      -2210.666       10.146707      2320.0102      10246.592    
ec    36800  18.4           0.0005         141.16886     -2209.8429      9.3244762      2446.8242      10246.592    
ec    36900  18.45          0.0005         146.43858     -2210.1912      9.6725511      2430.0463      10246.592    
ec    37000  18.5           0.0005         163.38569     -2211.3113      10.791941      2333.4502      10246.592    
ec    37100  18.55          0.0005         130.86869     -2209.1625      8.6441299      2366.4074      10246.592    
ec    37200  18.6           0.0005         154.74657     -2210.7401      10.221311      2472.6759      10246.592    
ec    37300  18.65          0.0005         151.51686     -2210.527       10.007982      2379.3762      10246.592    
ec    37400  18.7           0.0005         134.11915     -2209.3773      8.8588295      2361.8144      10246.592    
ec    37500  18.75          0.0005         156.86611     -2210.8802      10.36131       2464.0916      10246.592    
ec    37600  18.8           0.0005         148.88278     -2210.353       9.8339954      2276.8939      10246.592    
ec    37700  18.85          0.0005         150.88016     -2210.4846      9.9659262      2477.9735      10246.592    
ec    37800  18.9           0.0005         153.84949     -2210.681       10.162057      2339.6886      10246.592    
ec    37900  18.95          0.0005         159.75697     -2211.0712      10.552257      2414.332       10246.592    
ec    38000  19             0.0005         140.06679     -2209.7704      9.2516821      2306.2486      10246.592    
ec    38100  19.05          0.0005         163.27558     -2211.3036      10.784668      2490.5495      10246.592    
ec    38200  19.1           0.0005         140.89451     -2209.825       9.3063548      2337.4409      10246.592    
ec    38300  19.15          0.0005         151.90607     -2210.5526      10.03369       2411.9848      10246.592    
ec    38400  19.2           0.0005         142.26293     -2209.9155      9.3967417      2335.4484      10246.592    
ec    38500  19.25          0.0005         150.38386     -2210.4517      9.9331447      2503.4618      10246.592    
ec    38600  19.3           0.0005         155.684       -2210.8025      10.283229      2275.1038      10246.592    
ec    38700  19.35          0.0005         144.27909     -2210.0484      9.5299127      2448.8561      10246.592    
ec    38800  19.4           0.0005         150.47299     -2210.4578      9.9390319      2386.1109      10246.592    
ec    38900  19.45          0.0005         155.08043     -2210.7624      10.243363      2328.1692      10246.592    
ec    39000  19.5           0.0005         156.3135      -2210.8436      10.324809      2497.5921      10246.592    
ec    39100  19.55          0.0005         141.80376     -2209.8851      9.3664128      2299.5715      10246.592    
ec    39200  19.6           0.0005         156.5667      -2210.8604      10.341533      2478.8679      10246.592    
ec    39300  19.65          0.0005         138.3574      -2209.6574      9.1387737      2346.2702      10246.592    
ec    39400  19.7           0.0005         149.54863     -2210.3968      9.8779762      2378.5247      10246.592    
ec    39500  19.75          0.0005         158.45748     -2210.9854      10.466423      2430.4866      10246.592    
ec    39600  19.8           0.0005         145.22852     -2210.1113      9.5926247      2406.2572      10246.592    
ec    39700  19.85          0.0005         147.46542     -2210.2592      9.740376       2315.8679      10246.592    
ec    39800  19.9           0.0005         154.55146     -2210.7272      10.208423      2424.9067      10246.592    
ec    39900  19.95          0.0005         156.12881     -2210.8316      10.31261       2379.0824      10246.592    
ec    40000  20             0.0005         147.21374     -2210.2424      9.7237521      2380.9175      10246.592    
ec    40100  20.05          0.0005         142.94392     -2209.9605      9.4417226      2368.3899      10246.592    
ec    40200  20.1           0.0005         151.24532     -2210.5088      9.9900459      2378.5393      10246.592    
ec    40300  20.15          0.0005         143.82414     -2210.0186      9.4998628      2347.6106      10246.592    
ec    40400  20.2           0.0005         157.61647     -2210.9297      10.410873      2443.8319      10246.592    
ec    40500  20.25          0.0005         151.57301     -2210.5304      10.011691      2441.8612      10246.592    
ec    40600  20.3           0.0005         140.97568     -2209.8306      9.3117165      2235.66        10246.592    
ec    40700  20.35          0.0005         156.99666     -2210.8887      10.369933      2494.1393      10246.592    
ec    40800  20.4           0.0005         153.65554     -2210.6681      10.149245      2381.5769      10246.592    
ec    40900  20.45          0.0005         142.7909      -2209.9502      9.4316152      2436.6172      10246.592    
ec    41000  20.5           0.0005         139.84417     -2209.7557      9.236978       2292.3079      10246.592    
ec    41100  20.55          0.0005         150.14673     -2210.4362      9.9174819      2456.9107      10246.592    
ec    41200  20.6           0.0005         143.00135     -2209.9643      9.445516       2351.6156      10246.592    
ec    41300  20.65          0.0005         160.533       -2211.1224      10.603515      2403.1155      10246.592    
ec    41400  20.7           0.0005         146.89794     -2210.2216      9.7028929      2374.3148      10246.592    
ec    41500  20.75          0.0005         159.48597     -2211.0534      10.534357      2356.9477      10246.592    
ec    41600  20.8           0.0005         143.03462     -2209.9663      9.4477135      2358.479       10246.592    
ec    41700  20.85          0.0005         160.71679     -2211.1345      10.615655      2418.1715      10246.592    
ec    41800  20.9           0.0005         152.2126      -2210.573       10.053936      2335.6301      10246.592    
ec    41900  20.95          0.0005         138.98752     -2209.6988      9.1803948      2417.1092      10246.592    
ec    42000  21             0.0005         154.69416     -2210.7369      10.217849      2332.5151      10246.592    
ec    42100  21.05          0.0005         139.64787     -2209.7426      9.2240122      2345.4489      10246.592    
ec    42200  21.1           0.0005         159.58163     -2211.0595      10.540675      2497.3512      10246.592    
ec    42300  21.15          0.0005         151.42175     -2210.5208      10.0017        2228.8668      10246.592    
ec    42400  21.2           0.0005         145.88165     -2210.1541      9.6357654      2546.7515      10246.592    
ec    42500  21.25          0.0005         144.23712     -2210.0461      9.5271411      2260.112       10246.592    
ec    42600  21.3           0.0005         161.02256     -2211.1547      10.635851      2458.455       10246.592    
ec    42700  21.35          0.0005         149.73552     -2210.4091      9.8903207      2385.7514      10246.592    
ec    42800  21.4           0.0005         144.83053     -2210.0851      9.5663363      2373.572       10246.592    
ec    42900  21.45          0.0005         143.06675     -2209.9685      9.4498353      2377.7034      10246.592    
ec    43000  21.5           0.0005         151.89044     -2210.5514      10.032658      2377.8556      10246.592    
ec    43100  21.55          0.0005         160.48767     -2211.1197      10.600521      2415.5542      10246.592    
ec    43200  21.6           0.0005         141.45189     -2209.8616      9.3431706      2379.5802      10246.592    
ec    43300  21.65          0.0005         148.26263     -2210.312       9.7930332      2308.5514      10246.592    
ec    43400  21.7           0.0005         158.67359     -2210.9996      10.480698      2460.5524      10246.592    
ec    43500  21.75          0.0005         139.86716     -2209.7571      9.2384961      2341.7159      10246.592    
ec    43600  21.8           0.0005         161.61364     -2211.1939      10.674893      2396.278       10246.592    
ec    43700  21.85          0.0005         134.62463     -2209.4107      8.8922172      2346.5044      10246.592    
ec    43800  21.9           0.0005         149.99178     -2210.4261      9.9072474      2371.4366      10246.592    
ec    43900  21.95          0.0005         156.59615     -2210.8625      10.343478      2391.0094      10246.592    
ec    44000  22             0.0005         142.56686     -2209.9352      9.4168166      2423.2225      10246.592    
ec    44100  22.05          0.0005         151.16543     -2210.5036      9.9847689      2349.5818      10246.592    
ec    44200  22.1           0.0005         163.6978      -2211.3318      10.812556      2362.8345      10246.592    
ec    44300  22.15          0.0005         141.72977     -2209.8799      9.3615254      2416.2895      10246.592    
ec    44400  22.2           0.0005         154.94851     -2210.7537      10.234649      2351.2316      10246.592    
ec    44500  22.25          0.0005         158.0167      -2210.9562      10.437309      2455.4482      10246.592    
ec    44600  22.3           0.0005         128.1569      -2208.9834      8.4650114      2302.0428      10246.592    
ec    44700  22.35          0.0005         159.07717     -2211.0264      10.507354      2457.3799      10246.592    
ec    44800  22.4           0.0005         136.68986     -2209.5471      9.0286298      2382.94        10246.592    
ec    44900  22.45          0.0005         162.01066     -2211.2201      10.701118      2439.9766      10246.592    
ec    45000  22.5           0.0005         140.63022     -2209.8077      9.2888979      2312.6315      10246.592    
ec    45100  22.55          0.0005         155.74352     -2210.8059      10.287161      2446.2957      10246.592    
ec    45200  22.6           0.0005         155.9473      -2210.8196      10.300621      2414.3285      10246.592    
ec    45300  22.65          0.0005         140.13457     -2209.7748      9.2561591      2328.9204      10246.592    
ec    45400  22.7           0.0005         163.37397     -2211.3101      10.791167      2545.4728      10246.592    
ec    45500  22.75          0.0005         142.22608     -2209.9132      9.394308       2212.9336      10246.592    
ec    45600  22.8           0.0005         138.77674     -2209.6849      9.1664718      2464.6718      10246.592    
ec    45700  22.85          0.0005         162.98491     -2211.2846      10.765468      2406.604       10246.592    
ec    45800  22.9           0.0005         151.14509     -2210.5022      9.9834254      2353.2188      10246.592    
ec    45900  22.95          0.0005         143.28373     -2209.9828      9.4641672      2372.8772      10246.592    
ec    46000  23             0.0005         154.8763      -2210.7488      10.229879      2359.8605      10246.592    
ec    46100  23.05          0.0005         154.50233     -2210.724       10.205178      2453.5904      10246.592    
ec    46200  23.1           0.0005         141.45872     -2209.8622      9.3436223      2335.8824      10246.592    
ec    46300  23.15          0.0005         155.53126     -2210.7921      10.273141      2394.5641      10246.592    
ec    46400  23.2           0.0005         140.9358      -2209.8276      9.3090821      2401.1553      10246.592    
ec    46500  23.25          0.0005         147.25982     -2210.2457      9.7267962      2345.4808      10246.592    
ec    46600  23.3           0.0005         149.81277     -2210.4142      9.8954233      2422.501       10246.592    
ec    46700  23.35          0.0005         151.63468     -2210.5345      10.015764      2481.3583      10246.592    
ec    46800  23.4           0.0005         153.92269     -2210.686       10.166891      2270.6606      10246.592    
ec    46900  23.45          0.0005         139.51448     -2209.7335      9.2152011      2506.873       10246.592    
ec    47000  23.5           0.0005         159.24698     -2211.0378      10.518571      2321.33        10246.592    
ec    47100  23.55          0.0005         158.57036     -2210.9928      10.473879      2497.7374      10246.592    
ec    47200  23.6           0.0005         137.97148     -2209.6318      9.1132828      2389.9334      10246.592    
ec    47300  23.65          0.0005         150.54413     -2210.4627      9.9437307      2337.7779      10246.592    
ec    47400  23.7           0.0005         150.51001     -2210.4603      9.941477       2436.704       10246.592    
ec    47500  23.75          0.0005         147.66495     -2210.2723      9.7535556      2376.761       10246.592    
ec    47600  23.8           0.0005         150.48371     -2210.4585      9.9397399      2392.4115      10246.592    
ec    47700  23.85          0.0005         149.04609     -2210.3635      9.8447825      2349.9904      10246.592    
ec    47800  23.9           0.0005         156.8238      -2210.8776      10.358515      2363.2568      10246.592    
ec    47900  23.95          0.0005         146.2581      -2210.1793      9.6606306      2385.9688      10246.592    
ec    48000  24             0.0005         152.84372     -2210.6144      10.095623      2453.8554      10246.592    
ec    48100  24.05          0.0005         159.87709     -2211.0794      10.560191      2347.4981      10246.592    
ec    48200  24.1           0.0005         128.5853      -2209.0116      8.4933079      2349.979       10246.592    
ec    48300  24.15          0.0005         160.2409      -2211.1032      10.584221      2468.7831      10246.592    
ec    48400  24.2           0.0005         149.76603     -2210.4113      9.8923363      2417.9498      10246.592    
ec    48500  24.25          0.0005         138.49384     -2209.6663      9.147786       2347.6138      10246.592    
ec    48600  24.3           0.0005         158.35029     -2210.9784      10.459343      2403.6935      10246.592    
ec    48700  24.35          0.0005         152.28538     -2210.5775      10.058744      2423.7828      10246.592    
ec    48800  24.4           0.0005         141.04123     -2209.8346      9.316046       2415.4203      10246.592    
ec    48900  24.45          0.0005         159.07074     -2211.026       10.50693       2403.3031      10246.592    
ec    49000  24.5           0.0005         147.12905     -2210.2368      9.7181581      2453.2373      10246.592    
ec    49100  24.55          0.0005         143.06715     -2209.9687      9.4498618      2336.7155      10246.592    
ec    49200  24.6           0.0005         149.78624     -2210.4124      9.8936706      2444.7604      10246.592    
ec    49300  24.65          0.0005         149.20529     -2210.3741      9.8552982      2391.1693      10246.592    
ec    49400  24.7           0.0005         156.75579     -2210.8731      10.354023      2381.0539      10246.592    
ec    49500  24.75          0.0005         141.94512     -2209.8943      9.3757497      2374.9104      10246.592    
ec    49600  24.8           0.0005         160.13598     -2211.0962      10.577291      2447.4752      10246.592    
ec    49700  24.85          0.0005         148.38844     -2210.3203      9.8013437      2318.0605      10246.592    
ec    49800  24.9           0.0005         159.84622     -2211.077       10.558152      2464.0549      10246.592    
ec    49900  24.95          0.0005         139.38405     -2209.7251      9.2065859      2394.9679      10246.592    
ec    50000  25             0.0005         144.24553     -2210.0465      9.5276962      2344.178       10246.592    
ec    50100  25.05          0.0005         152.42422     -2210.5868      10.067915      2472.7068      10246.592    
ec    50200  25.1           0.0005         149.79209     -2210.4128      9.8940573      2395.0368      10246.592    
ec    50300  25.15          0.0005         138.32719     -2209.6553      9.1367787      2437.4064      10246.592    
ec    50400  25.2           0.0005         158.97974     -2211.0201      10.500919      2370.3369      10246.592    
ec    50500  25.25          0.0005         147.59127     -2210.2673      9.7486889      2430.9475      10246.592    
ec    50600  25.3           0.0005         153.03424     -2210.627       10.108208      2396.0629      10246.592    
ec    50700  25.35          0.0005         156.38501     -2210.8486      10.329532      2448.0403      10246.592    
ec    50800  25.4           0.0005         142.16251     -2209.9087      9.3901089      2383.4113      10246.592    
ec    50900  25.45          0.0005         147.08289     -2210.2339      9.7151091      2388.5195      10246.592    
ec    51000  25.5           0.0005         153.052       -2210.6283      10.109381      2462.2744      10246.592    
ec    51100  25.55          0.0005         157.2185      -2210.9036      10.384586      2431.8024      10246.592    
ec    51200  25.6           0.0005         135.60052     -2209.4751      8.9566767      2385.8452      10246.592    
ec    51300  25.65          0.0005         153.50772     -2210.6586      10.139482      2338.2968      10246.592    
ec    51400  25.7           0.0005         162.47056     -2211.2503      10.731495      2503.2492      10246.592    
ec    51500  25.75          0.0005         140.66063     -2209.8096      9.290907       2281.7009      10246.592    
ec    51600  25.8           0.0005         161.53767     -2211.1888      10.669876      2554.0902      10246.592    
ec    51700  25.85          0.0005         137.17951     -2209.5796      9.0609717      2296.6453      10246.592    
ec    51800  25.9           0.0005         155.04828     -2210.7602      10.241239      2438.9741      10246.592    
ec    51900  25.95          0.0005         142.04041     -2209.9006      9.382044       2374.5908      10246.592    
ec    52000  26             0.0005         155.34221     -2210.7796      10.260654      2417.1611      10246.592    
ec    52100  26.05          0.0005         155.30691     -2210.7773      10.258322      2401.1492      10246.592    
ec    52200  26.1           0.0005         132.69852     -2209.2835      8.7649942      2323.0645      10246.592    
ec    52300  26.15          0.0005         166.13733     -2211.4927      10.973692      2505.0306      10246.592    
ec    52400  26.2           0.0005         145.80554     -2210.1496      9.6307379      2339.97        10246.592    
ec    52500  26.25          0.0005         151.40819     -2210.5195      10.000804      2496.956       10246.592    
ec    52600  26.3           0.0005         142.28783     -2209.9173      9.3983865      2332.147       10246.592    
ec    52700  26.35          0.0005         153.28675     -2210.6437      10.124887      2498.9208      10246.592    
ec    52800  26.4           0.0005         144.72383     -2210.0781      9.5592888      2334.292       10246.592    
ec    52900  26.45          0.0005         149.48871     -2210.3927      9.8740184      2498.5056      10246.592    
ec    53000  26.5           0.0005         156.91083     -2210.8833      10.364264      2408.9912      10246.592    
ec    53100  26.55          0.0005         138.6408      -2209.6761      9.1574927      2365.4184      10246.592    
ec    53200  26.6           0.0005         154.58297     -2210.7294      10.210504      2409.7521      10246.592    
ec    53300  26.65          0.0005         162.8992      -2211.2788      10.759807      2498.2653      10246.592    
ec    53400  26.7           0.0005         150.4858      -2210.4588      9.9398783      2355.8826      10246.592    
ec    53500  26.75          0.0005         138.57395     -2209.6717      9.1530773      2374.2876      10246.592    
ec    53600  26.8           0.0005         149.35493     -2210.3839      9.8651818      2453.9163      10246.592    
ec    53700  26.85          0.0005         154.64659     -2210.7338      10.214706      2388.0664      10246.592    
ec    53800  26.9           0.0005         142.28039     -2209.9165      9.3978949      2356.9575      10246.592    
ec    53900  26.95          0.0005         148.97445     -2210.3587      9.8400508      2516.3827      10246.592    
ec    54000  27             0.0005         152.88355     -2210.6174      10.098254      2284.3724      10246.592    
ec    54100  27.05          0.0005         148.39794     -2210.3207      9.801971       2387.8574      10246.592    
ec    54200  27.1           0.0005         151.16559     -2210.5035      9.9847799      2467.4757      10246.592    
ec    54300  27.15          0.0005         162.46345     -2211.2503      10.731025      2390.7876      10246.592    
ec    54400  27.2           0.0005         134.42665     -2209.3976      8.8791402      2381.1116      10246.592    
ec    54500  27.25          0.0005         152.97713     -2210.6233      10.104435      2429.8669      10246.592    
ec    54600  27.3           0.0005         147.04754     -2210.2315      9.7127741      2500.2856      10246.592    
ec    54700  27.35          0.0005         151.9475      -2210.5554      10.036426      2360.8007      10246.592    
ec    54800  27.4           0.0005         146.70322     -2210.2087      9.6900312      2446.3795      10246.592    
ec    54900  27.45          0.0005         145.76927     -2210.1472      9.6283424      2348.725       10246.592    
ec    55000  27.5           0.0005         162.45304     -2211.2495      10.730338      2439.6187      10246.592    
ec    55100  27.55          0.0005         140.78244     -2209.8174      9.2989524      2404.0841      10246.592    
ec    55200  27.6           0.0005         163.95961     -2211.349       10.829849      2445.9601      10246.592    
ec    55300  27.65          0.0005         141.9767      -2209.8966      9.3778357      2293.6649      10246.592    
ec    55400  27.7           0.0005         146.42532     -2210.1903      9.6716754      2468.6577      10246.592    
ec    55500  27.75          0.0005         152.85135     -2210.615       10.096127      2404.2175      10246.592    
ec    55600  27.8           0.0005         152.07518     -2210.5638      10.04486       2369.8227      10246.592    
ec    55700  27.85          0.0005         152.45202     -2210.5886      10.069751      2389.1691      10246.592    
ec    55800  27.9           0.0005         136.76422     -2209.552       9.0335414      2350.4332      10246.592    
ec    55900  27.95          0.0005         163.835       -2211.3407      10.821619      2481.9926      10246.592    
ec    56000  28             0.0005         145.87525     -2210.1542      9.6353422      2316.8126      10246.592    
ec    56100  28.05          0.0005         147.88357     -2210.2866      9.7679958      2451.3562      10246.592    
ec    56200  28.1           0.0005         146.51207     -2210.1963      9.6774054      2315.2489      10246.592    
ec    56300  28.15          0.0005         148.31665     -2210.3153      9.7966015      2494.5808      10246.592    
ec    56400  28.2           0.0005         144.54534     -2210.0663      9.5474993      2358.1567      10246.592    
ec    56500  28.25          0.0005         156.01612     -2210.8241      10.305167      2493.3529      10246.592    
ec    56600  28.3           0.0005         146.77249     -2210.2133      9.694607       2340.884       10246.592    
ec    56700  28.35          0.0005         144.75042     -2210.0798      9.5610455      2413.0473      10246.592    
ec    56800  28.4           0.0005         160.03725     -2211.0897      10.57077       2432.6904      10246.592    
ec    56900  28.45          0.0005         152.6317      -2210.6005      10.081619      2380.3109      10246.592    
ec    57000  28.5           0.0005         152.27732     -2210.577       10.058212      2445.0374      10246.592    
ec    57100  28.55          0.0005         147.65639     -2210.2719      9.7529904      2305.0396      10246.592    
ec    57200  28.6           0.0005         150.40139     -2210.453       9.9343028      2467.2119      10246.592    
ec    57300  28.65          0.0005         146.44908     -2210.1922      9.6732449      2354.3082      10246.592    
ec    57400  28.7           0.0005         151.40451     -2210.5191      10.000561      2504.1979      10246.592    
ec    57500  28.75          0.0005         142.5306      -2209.9332      9.414422       2297.8364      10246.592    
ec    57600  28.8           0.0005         150.93473     -2210.4884      9.969531       2394.3581      10246.592    
ec    57700  28.85          0.0005         152.51378     -2210.5926      10.07383       2402.7999      10246.592    
ec    57800  28.9           0.0005         152.83416     -2210.6137      10.094992      2459.5281      10246.592    
ec    57900  28.95          0.0005         145.12269     -2210.1045      9.5856342      2259.29        10246.592    
ec    58000  29             0.0005         155.45678     -2210.787       10.268221      2532.522       10246.592    
ec    58100  29.05          0.0005         139.96064     -2209.7633      9.2446712      2288.5334      10246.592    
ec    58200  29.1           0.0005         151.86013     -2210.5495      10.030655      2481.2042      10246.592    
ec    58300  29.15          0.0005         146.42488     -2210.1903      9.6716467      2438.8064      10246.592    
ec    58400  29.2           0.0005         150.38437     -2210.4521      9.9331784      2333.9404      10246.592    
ec    58500  29.25          0.0005         150.85581     -2210.4831      9.964318       2408.1872      10246.592    
ec    58600  29.3           0.0005         152.15722     -2210.5691      10.050279      2440.9347      10246.592    
ec    58700  29.35          0.0005         154.85966     -2210.7476      10.22878       2433.5578      10246.592    
ec    58800  29.4           0.0005         145.28357     -2210.1152      9.5962611      2279.5375      10246.592    
ec    58900  29.45          0.0005         154.58508     -2210.7294      10.210643      2556.7781      10246.592    
ec    59000  29.5           0.0005         144.34049     -2210.0527      9.5339687      2339.4964      10246.592    
ec    59100  29.55          0.0005         145.48067     -2210.1281      9.6092799      2390.5821      10246.592    
ec    59200  29.6           0.0005         153.90548     -2210.6847      10.165755      2449.2934      10246.592    
ec    59300  29.65          0.0005         155.85455     -2210.8135      10.294494      2393.9283      10246.592    
ec    59400  29.7           0.0005         139.94065     -2209.7619      9.2433505      2370.5487      10246.592    
ec    59500  29.75          0.0005         161.83147     -2211.2084      10.689282      2447.6779      10246.592    
ec    59600  29.8           0.0005         151.63154     -2210.5344      10.015557      2419.8166      10246.592    
ec    59700  29.85          0.0005         145.61411     -2210.1368      9.6180935      2348.91        10246.592    
ec    59800  29.9           0.0005         146.66556     -2210.2063      9.687544       2397.9562      10246.592    
ec    59900  29.95          0.0005         152.14834     -2210.5684      10.049692      2527.2188      10246.592    
Fix halt condition for fix-id myhalt met on step 60000 with value 30 (../fix_halt.cpp:240)
ec    60000  30             0.0005         144.21754     -2210.0448      9.5258477      2269.3562      10246.592    
Loop time of 11.7776 on 2 procs for 60000 steps with 512 atoms

Performance: 220.079 ns/day, 0.109 hours/ns, 5094.422 timesteps/s, 2.608 Matom-step/s
97.1% CPU use with 2 MPI tasks x no OpenMP threads

MPI task timing breakdown:
Section |  min time  |  avg time  |  max time  |%varavg| %total
---------------------------------------------------------------
Pair    | 10.555     | 10.567     | 10.578     |   0.4 | 89.72
Neigh   | 0          | 0          | 0          |   0.0 |  0.00
Comm    | 0.98305    | 0.99674    | 1.0104     |   1.4 |  8.46
Output  | 0.0044536  | 0.0070509  | 0.0096483  |   3.1 |  0.06
Modify  | 0.096949   | 0.097078   | 0.097206   |   0.0 |  0.82
Other   |            | 0.1102     |            |       |  0.94

Nlocal:            256 ave         256 max         256 min
Histogram: 2 0 0 0 0 0 0 0 0 0
Nghost:           1081 ave        1081 max        1081 min
Histogram: 2 0 0 0 0 0 0 0 0 0
Neighs:              0 ave           0 max           0 min
Histogram: 2 0 0 0 0 0 0 0 0 0
FullNghs:         8704 ave        8704 max        8704 min
Histogram: 2 0 0 0 0 0 0 0 0 0

Total # of neighbors = 17408
Ave neighs/atom = 34
Neighbor list builds = 0
Dangerous builds = 0

unfix myhalt

fix NPT all npt temp 300 300 ${tau_T} iso 0.0 0.0 1.0
fix NPT all npt temp 300 300 0.1 iso 0.0 0.0 1.0



fix myhalt all halt 100 v_t >= 60.0 error continue

run 10000000
WARNING: One or more atoms are time integrated more than once (../modify.cpp:296)
Per MPI rank memory allocation (min/avg/max) = 3.237 | 3.237 | 3.237 Mbytes
   Step          Time            Dt            Temp          PotEng         KinEng         Press          Volume    
ec    60000  30             0.0005         144.21754     -2210.0448      9.5258477      2269.3562      10246.592    
ec    60100  30.05          0.0005         164.22291     -2208.7156      10.847241     -685.33448      10280.731    
ec    60200  30.1           0.0005         189.78193     -2207.079       12.535463     -1922.9703      10297.379    
ec    60300  30.15          0.0005         221.3097      -2205.003       14.617933      2022.7613      10262.377    
ec    60400  30.2           0.0005         266.77845     -2203.2502      17.621233      872.45558      10281.964    
ec    60500  30.25          0.0005         294.15382     -2199.8676      19.429429     -2351.9774      10318.856    
ec    60600  30.3           0.0005         386.31562     -2200.7631      25.516894      1004.9855      10290.447    
ec    60700  30.35          0.0005         366.70586     -2195.2605      24.221631      1740.7514      10289.467    
ec    60800  30.4           0.0005         360.98011     -2192.6486      23.843434     -2356.4796      10333.26     
ec    60900  30.45          0.0005         386.78371     -2192.83        25.547812     -94.197798      10313.371    
ec    61000  30.5           0.0005         400.46496     -2192.3953      26.451485      2140.8628      10290.317    
ec    61100  30.55          0.0005         421.26119     -2192.546       27.825117     -1671.8515      10332.116    
ec    61200  30.6           0.0005         433.15595     -2192.32        28.610788     -1485.6237      10333.222    
ec    61300  30.65          0.0005         431.88632     -2191.3645      28.526927      2497.2828      10295.449    
ec    61400  30.7           0.0005         452.59504     -2191.9736      29.894778     -394.07244      10324.644    
ec    61500  30.75          0.0005         466.10936     -2192.3515      30.787425     -2306.02        10346.763    
ec    61600  30.8           0.0005         433.95205     -2189.7612      28.663372      1851.4613      10305.899    
ec    61700  30.85          0.0005         440.61948     -2189.8144      29.103769      1226.2496      10314.202    
ec    61800  30.9           0.0005         445.28548     -2189.9598      29.411967     -2557.7801      10352.489    
ec    61900  30.95          0.0005         451.65519     -2190.3337      29.832699      662.65157      10319.638    
ec    62000  31             0.0005         438.99471     -2189.3486      28.99645       2240.7202      10305.087    
ec    62100  31.05          0.0005         448.36987     -2189.9921      29.615697     -2264.4758      10349.982    
ec    62200  31.1           0.0005         439.70243     -2189.4488      29.043196     -643.37874      10334.854    
ec    62300  31.15          0.0005         449.86538     -2190.2405      29.714478      2788.1336      10300.282    
ec    62400  31.2           0.0005         453.52836     -2190.6594      29.956425     -1137.2974      10339.887    
ec    62500  31.25          0.0005         430.53357     -2189.296       28.437575     -1944.844       10348.325    
ec    62600  31.3           0.0005         438.62173     -2189.9499      28.971814      2570.3933      10302.181    
ec    62700  31.35          0.0005         435.21263     -2189.909       28.746636      322.446        10325.47     
ec    62800  31.4           0.0005         437.05029     -2190.1616      28.868017     -2773.704       10356.994    
ec    62900  31.45          0.0005         460.65363     -2191.9225      30.427063      1592.1544      10311.191    
ec    63000  31.5           0.0005         457.07215     -2191.9353      30.1905        1695.474       10310.037    
ec    63100  31.55          0.0005         424.2601      -2189.9662      28.0232       -2867.1896      10358.106    
ec    63200  31.6           0.0005         422.5923      -2190.0429      27.913039      278.82978      10325.958    
ec    63300  31.65          0.0005         448.11099     -2191.8229      29.598598      2909.6474      10298.039    
ec    63400  31.7           0.0005         442.82716     -2191.7349      29.249591     -2230.0271      10350.619    
ec    63500  31.75          0.0005         420.30205     -2190.3687      27.761763     -1468.5864      10343.335    
ec    63600  31.8           0.0005         466.35198     -2193.5085      30.80345       3329.5309      10292.823    
ec    63700  31.85          0.0005         467.01831     -2193.788       30.847463     -936.05506      10335.344    
ec    63800  31.9           0.0005         416.03444     -2190.6233      27.479879     -3005.6346      10359.214    
ec    63900  31.95          0.0005         389.63099     -2188.9392      25.735881      3107.6397      10297.089    
ec    64000  32             0.0005         416.85228     -2190.8444      27.533899      1308.6655      10314.529    
ec    64100  32.05          0.0005         425.18585     -2191.4674      28.084348     -4043.3005      10368.803    
ec    64200  32.1           0.0005         463.63519     -2194.2128      30.624001      1280.3836      10311.869    
ec    64300  32.15          0.0005         427.08694     -2191.9711      28.209918      3339.1621      10292.841    
ec    64400  32.2           0.0005         360.95267     -2187.6544      23.841622     -3702.4212      10367.384    
ec    64500  32.25          0.0005         429.30536     -2192.2795      28.35645      -831.51362      10335.366    
ec    64600  32.3           0.0005         428.41676     -2192.3116      28.297755      4843.9816      10277.23     
ec    64700  32.35          0.0005         411.65353     -2191.3034      27.190512     -2452.8149      10352.145    
[...]
ec   164300  82.15          0.0005         407.51061     -2195.7378      26.916864      1383.4228      10301.894    
ec   164400  82.2           0.0005         387.19232     -2194.6602      25.574802      1416.1583      10301.894    
ec   164500  82.25          0.0005         375.1015      -2193.6403      24.77618       1499.997       10301.894    
ec   164600  82.3           0.0005         405.62695     -2195.9057      26.792445      1330.8113      10301.894    
ec   164700  82.35          0.0005         359.61276     -2192.6938      23.753118      1547.5645      10301.894    
ec   164800  82.4           0.0005         421.22551     -2196.9224      27.82276       1329.3957      10301.894    
ec   164900  82.45          0.0005         351.5732      -2192.255       23.22209       1507.2214      10301.894    
ec   165000  82.5           0.0005         414.30445     -2196.4437      27.36561       1345.1897      10301.894    
ec   165100  82.55          0.0005         358.24919     -2192.7571      23.663052      1512.7482      10301.894    
ec   165200  82.6           0.0005         424.35029     -2197.1264      28.029158      1292.7339      10301.894    
ec   165300  82.65          0.0005         357.28216     -2192.7685      23.599177      1473.2744      10301.894    
ec   165400  82.7           0.0005         407.55703     -2196.0449      26.91993       1349.6675      10301.894    
ec   165500  82.75          0.0005         357.00705     -2192.8041      23.581006      1458.6207      10301.894    
ec   165600  82.8           0.0005         410.17952     -2196.2508      27.093151      1324.7292      10301.894    
ec   165700  82.85          0.0005         371.36891     -2193.8108      24.529635      1427.9071      10301.894    
ec   165800  82.9           0.0005         398.04245     -2195.5084      26.291474      1340.1111      10301.894    
ec   165900  82.95          0.0005         378.00424     -2194.3059      24.967911      1392.527       10301.894    
ec   166000  83             0.0005         375.62865     -2194.0769      24.810999      1410.3607      10301.894    
ec   166100  83.05          0.0005         401.49438     -2195.8673      26.51948       1328.0047      10301.894    
ec   166200  83.1           0.0005         374.60321     -2194.1036      24.743267      1360.1482      10301.894    
ec   166300  83.15          0.0005         389.23679     -2195.1032      25.709843      1330.8958      10301.894    
ec   166400  83.2           0.0005         365.75235     -2193.5641      24.15865       1449.3875      10301.894    
ec   166500  83.25          0.0005         399.01035     -2195.7644      26.355406      1282.2557      10301.894    
ec   166600  83.3           0.0005         377.80037     -2194.4213      24.954445      1346.6563      10301.894    
ec   166700  83.35          0.0005         386.33669     -2194.9687      25.518285      1349.8916      10301.894    
ec   166800  83.4           0.0005         377.34442     -2194.4339      24.924329      1357.0552      10301.894    
ec   166900  83.45          0.0005         376.64179     -2194.3534      24.877919      1347.8853      10301.894    
ec   167000  83.5           0.0005         401.41586     -2196.0246      26.514294      1272.4185      10301.894    
ec   167100  83.55          0.0005         369.30365     -2193.9478      24.39322       1366.2752      10301.894    
ec   167200  83.6           0.0005         384.07129     -2194.8687      25.368652      1314.9687      10301.894    
ec   167300  83.65          0.0005         383.66366     -2194.9113      25.341727      1349.9515      10301.894    
ec   167400  83.7           0.0005         378.92099     -2194.5231      25.028464      1357.4209      10301.894    
ec   167500  83.75          0.0005         395.58981     -2195.7118      26.129472      1288.1329      10301.894    
ec   167600  83.8           0.0005         355.27548     -2192.9899      23.466633      1409.4292      10301.894    
ec   167700  83.85          0.0005         406.66776     -2196.412       26.861192      1260.1625      10301.894    
ec   167800  83.9           0.0005         365.39331     -2193.6842      24.134935      1407.4775      10301.894    
ec   167900  83.95          0.0005         401.27574     -2196.0359      26.505039      1263.7467      10301.894    
ec   168000  84             0.0005         354.30729     -2192.9791      23.402682      1423.9014      10301.894    
ec   168100  84.05          0.0005         399.25275     -2195.8655      26.371416      1319.021       10301.894    
ec   168200  84.1           0.0005         396.29648     -2195.8025      26.176149      1300.1495      10301.894    
ec   168300  84.15          0.0005         370.85607     -2194.0306      24.495761      1377.9704      10301.894    
ec   168400  84.2           0.0005         390.66252     -2195.4568      25.804015      1258.0256      10301.894    
ec   168500  84.25          0.0005         352.22694     -2192.8429      23.265271      1409.1851      10301.894    
ec   168600  84.3           0.0005         417.43364     -2197.2105      27.572299      1237.0361      10301.894    
ec   168700  84.35          0.0005         346.87163     -2192.5187      22.911542      1460.5033      10301.894    
ec   168800  84.4           0.0005         420.29804     -2197.365       27.761499      1196.856       10301.894    
ec   168900  84.45          0.0005         356.44239     -2193.2699      23.543709      1396.8145      10301.894    
ec   169000  84.5           0.0005         397.29281     -2195.8399      26.241959      1322.1612      10301.894    
ec   169100  84.55          0.0005         388.33507     -2195.3937      25.650282      1294.8448      10301.894    
ec   169200  84.6           0.0005         360.10099     -2193.3743      23.785367      1364.2347      10301.894    
ec   169300  84.65          0.0005         388.90716     -2195.4087      25.68807       1300.4974      10301.894    
ec   169400  84.7           0.0005         364.91365     -2193.7059      24.103253      1391.7465      10301.894    
ec   169500  84.75          0.0005         421.54214     -2197.5741      27.843674      1212.5419      10301.894    
ec   169600  84.8           0.0005         350.60559     -2192.77        23.158177      1480.1733      10301.894    
ec   169700  84.85          0.0005         413.87025     -2197.0517      27.33693       1197.2152      10301.894    
ec   169800  84.9           0.0005         342.76385     -2192.3408      22.640215      1428.745       10301.894    
ec   169900  84.95          0.0005         397.2512      -2195.8571      26.23921       1334.419       10301.894    
ec   170000  85             0.0005         391.4652      -2195.5286      25.857034      1291.2364      10301.894    
ec   170100  85.05          0.0005         363.51363     -2193.593       24.010778      1400.2956      10301.894    
ec   170200  85.1           0.0005         394.30109     -2195.7261      26.04435       1292.6208      10301.894    
ec   170300  85.15          0.0005         372.66963     -2194.1838      24.61555       1425.1138      10301.894    
ec   170400  85.2           0.0005         411.24738     -2196.8141      27.163685      1286.0362      10301.894    
ec   170500  85.25          0.0005         361.2725      -2193.3871      23.862748      1394.394       10301.894    
ec   170600  85.3           0.0005         374.50879     -2194.3657      24.73703       1372.8069      10301.894    
ec   170700  85.35          0.0005         376.70835     -2194.39        24.882315      1398.2382      10301.894    
ec   170800  85.4           0.0005         397.06467     -2195.7977      26.226889      1348.9433      10301.894    
ec   170900  85.45          0.0005         398.94053     -2195.8329      26.350793      1343.1622      10301.894    
ec   171000  85.5           0.0005         352.09171     -2192.7849      23.256338      1438.3627      10301.894    
ec   171100  85.55          0.0005         418.07468     -2197.1387      27.614641      1267.6077      10301.894    
ec   171200  85.6           0.0005         332.10207     -2191.43        21.935984      1570.5319      10301.894    
ec   171300  85.65          0.0005         456.09859     -2199.5372      30.126194      1192.878       10301.894    
ec   171400  85.7           0.0005         324.47787     -2190.961       21.432391      1474.4049      10301.894    
ec   171500  85.75          0.0005         393.14249     -2195.3783      25.967822      1349.5962      10301.894    
ec   171600  85.8           0.0005         383.75596     -2194.8863      25.347823      1422.7568      10301.894    
ec   171700  85.85          0.0005         386.25422     -2194.9554      25.512838      1377.7755      10301.894    
ec   171800  85.9           0.0005         416.10147     -2197.0096      27.484307      1250.7678      10301.894    
ec   171900  85.95          0.0005         308.44935     -2189.9381      20.373676      1548.4704      10301.894    
ec   172000  86             0.0005         440.11573     -2198.6362      29.070495      1209.8354      10301.894    
ec   172100  86.05          0.0005         334.53078     -2191.7502      22.096405      1492.6242      10301.894    
ec   172200  86.1           0.0005         466.49642     -2200.4014      30.812991      1136.9314      10301.894    
ec   172300  86.15          0.0005         284.23461     -2188.5524      18.774245      1567.2817      10301.894    
ec   172400  86.2           0.0005         451.68096     -2199.5497      29.834401      1131.7186      10301.894    
ec   172500  86.25          0.0005         316.08005     -2190.7707      20.877699      1539.856       10301.894    
ec   172600  86.3           0.0005         455.53462     -2199.8297      30.088943      1106.4737      10301.894    
ec   172700  86.35          0.0005         336.88443     -2192.2491      22.251868      1409.0954      10301.894    
ec   172800  86.4           0.0005         354.70751     -2193.3137      23.429117      1369.1854      10301.894    
ec   172900  86.45          0.0005         426.42791     -2198.1816      28.166388      1184.4749      10301.894    
ec   173000  86.5           0.0005         345.65516     -2192.8539      22.831192      1395.6536      10301.894    
ec   173100  86.55          0.0005         432.33112     -2198.5376      28.556307      1114.7256      10301.894    
ec   173200  86.6           0.0005         300.1011      -2189.9936      19.822258      1501.2901      10301.894    
ec   173300  86.65          0.0005         434.1106      -2198.7389      28.673845      1132.1745      10301.894    
ec   173400  86.7           0.0005         338.55872     -2192.5563      22.362458      1383.58        10301.894    
ec   173500  86.75          0.0005         432.92379     -2198.6966      28.595454      1112.026       10301.894    
ec   173600  86.8           0.0005         319.85078     -2191.3518      21.126763      1419.0401      10301.894    
ec   173700  86.85          0.0005         412.36041     -2197.4485      27.237202      1178.9668      10301.894    
ec   173800  86.9           0.0005         357.65246     -2193.8233      23.623636      1336.2662      10301.894    
ec   173900  86.95          0.0005         399.61833     -2196.6028      26.395564      1206.635       10301.894    
ec   174000  87             0.0005         373.72021     -2194.8411      24.684942      1247.8236      10301.894    
ec   174100  87.05          0.0005         345.16179     -2193.0623      22.798604      1368.8504      10301.894    
ec   174200  87.1           0.0005         408.69781     -2197.0343      26.995281      1231.2107      10301.894    
ec   174300  87.15          0.0005         372.88103     -2194.8554      24.629513      1317.9201      10301.894    
ec   174400  87.2           0.0005         387.83464     -2195.6069      25.617228      1233.4995      10301.894    
ec   174500  87.25          0.0005         363.1951      -2194.1526      23.989739      1307.6875      10301.894    
ec   174600  87.3           0.0005         389.23579     -2195.7257      25.709777      1314.9219      10301.894    
ec   174700  87.35          0.0005         356.05509     -2193.4924      23.518127      1360.776       10301.894    
ec   174800  87.4           0.0005         424.17887     -2198.0114      28.017835      1177.7764      10301.894    
ec   174900  87.45          0.0005         320.70714     -2191.1073      21.183327      1445.8186      10301.894    
ec   175000  87.5           0.0005         435.5165      -2198.7642      28.766707      1150.2622      10301.894    
ec   175100  87.55          0.0005         327.67661     -2191.4746      21.643674      1506.5821      10301.894    
ec   175200  87.6           0.0005         438.41061     -2198.8968      28.957869      1150.621       10301.894    
ec   175300  87.65          0.0005         323.66769     -2191.2179      21.378877      1427.4679      10301.894    
ec   175400  87.7           0.0005         420.48049     -2197.7273      27.77355       1193.4713      10301.894    
ec   175500  87.75          0.0005         349.55235     -2192.9227      23.088609      1441.8469      10301.894    
ec   175600  87.8           0.0005         410.84609     -2197.0539      27.137179      1192.6884      10301.894    
ec   175700  87.85          0.0005         347.38038     -2192.8975      22.945146      1362.3898      10301.894    
ec   175800  87.9           0.0005         386.72116     -2195.5016      25.54368       1286.0356      10301.894    
ec   175900  87.95          0.0005         409.67795     -2197.1479      27.060021      1207.5817      10301.894    
ec   176000  88             0.0005         338.47511     -2192.3387      22.356935      1394.1322      10301.894    
ec   176100  88.05          0.0005         423.82457     -2198.2438      27.994432      1077.9741      10301.894    
ec   176200  88.1           0.0005         306.07539     -2190.3988      20.216872      1419.399       10301.894    
ec   176300  88.15          0.0005         468.56979     -2201.3132      30.949941      977.47347      10301.894    
ec   176400  88.2           0.0005         283.28921     -2188.9718      18.7118        1557.2578      10301.894    
ec   176500  88.25          0.0005         442.05498     -2199.6845      29.198587      968.26506      10301.894    
ec   176600  88.3           0.0005         298.84618     -2190.293       19.739368      1366.895       10301.894    
ec   176700  88.35          0.0005         464.29591     -2201.2877      30.667643      979.37712      10301.894    
ec   176800  88.4           0.0005         336.99231     -2192.9233      22.258994      1304.519       10301.894    
ec   176900  88.45          0.0005         379.08263     -2195.8088      25.039141      1109.8195      10301.894    
ec   177000  88.5           0.0005         342.41144     -2193.5175      22.616938      1211.2877      10301.894    
ec   177100  88.55          0.0005         396.57469     -2197.0735      26.194525      1093.3666      10301.894    
ec   177200  88.6           0.0005         390.70048     -2196.701       25.806522      1085.374       10301.894    
ec   177300  88.65          0.0005         331.82174     -2192.7982      21.917468      1232.3465      10301.894    
ec   177400  88.7           0.0005         393.85992     -2196.9766      26.01521       1054.0145      10301.894    
ec   177500  88.75          0.0005         357.12378     -2194.4869      23.588716      1206.3045      10301.894    
ec   177600  88.8           0.0005         402.53486     -2197.3895      26.588206      1119.439       10301.894    
ec   177700  88.85          0.0005         357.98964     -2194.3553      23.645908      1209.1745      10301.894    
ec   177800  88.9           0.0005         372.63393     -2195.317       24.613192      1184.9205      10301.894    
ec   177900  88.95          0.0005         379.49521     -2195.6415      25.066393      1180.2442      10301.894    
ec   178000  89             0.0005         380.99587     -2195.7013      25.165514      1192.4103      10301.894    
ec   178100  89.05          0.0005         382.76736     -2195.6311      25.282524      1241.7816      10301.894    
ec   178200  89.1           0.0005         343.59197     -2193.0848      22.694914      1291.2842      10301.894    
ec   178300  89.15          0.0005         388.51468     -2195.8781      25.662146      1171.2893      10301.894    
ec   178400  89.2           0.0005         379.84141     -2195.4066      25.08926       1239.4741      10301.894    
ec   178500  89.25          0.0005         384.56673     -2195.5217      25.401376      1243.1979      10301.894    
ec   178600  89.3           0.0005         379.01101     -2195.2111      25.03441       1249.0268      10301.894    
ec   178700  89.35          0.0005         361.78522     -2194.0194      23.896614      1278.6831      10301.894    
ec   178800  89.4           0.0005         393.96479     -2196.1319      26.022136      1203.2615      10301.894    
ec   178900  89.45          0.0005         371.7868      -2194.6504      24.557237      1347.0228      10301.894    
ec   179000  89.5           0.0005         400.17087     -2196.4263      26.43206       1208.0309      10301.894    
ec   179100  89.55          0.0005         346.75821     -2193.0448      22.90405       1326.9272      10301.894    
ec   179200  89.6           0.0005         391.96655     -2195.8005      25.890149      1244.2124      10301.894    
ec   179300  89.65          0.0005         394.86497     -2196.2288      26.081595      1208.192       10301.894    
ec   179400  89.7           0.0005         355.44389     -2193.3141      23.477756      1376.5758      10301.894    
ec   179500  89.75          0.0005         390.48448     -2195.8478      25.792255      1212.7054      10301.894    
ec   179600  89.8           0.0005         347.66615     -2192.824       22.964021      1361.8966      10301.894    
ec   179700  89.85          0.0005         421.88014     -2197.849       27.865999      1186.9622      10301.894    
ec   179800  89.9           0.0005         367.30024     -2194.1201      24.260892      1346.5174      10301.894    
ec   179900  89.95          0.0005         394.50682     -2195.9357      26.057938      1222.1024      10301.894    
Fix halt condition for fix-id myhalt met on step 180000 with value 90 (../fix_halt.cpp:240)
ec   180000  90             0.0005         361.0855      -2193.7366      23.850396      1367.3433      10301.894    
Loop time of 9.32074 on 2 procs for 60000 steps with 512 atoms

Performance: 278.090 ns/day, 0.086 hours/ns, 6437.258 timesteps/s, 3.296 Matom-step/s
96.2% CPU use with 2 MPI tasks x no OpenMP threads

MPI task timing breakdown:
Section |  min time  |  avg time  |  max time  |%varavg| %total
---------------------------------------------------------------
Pair    | 7.8268     | 7.995      | 8.1632     |   5.9 | 85.78
Neigh   | 0          | 0          | 0          |   0.0 |  0.00
Comm    | 0.75945    | 0.92791    | 1.0964     |  17.5 |  9.96
Output  | 0.0042868  | 0.0075887  | 0.010891   |   3.8 |  0.08
Modify  | 0.28377    | 0.28707    | 0.29036    |   0.6 |  3.08
Other   |            | 0.1032     |            |       |  1.11

Nlocal:            256 ave         260 max         252 min
Histogram: 1 0 0 0 0 0 0 0 0 1
Nghost:           1081 ave        1085 max        1077 min
Histogram: 1 0 0 0 0 0 0 0 0 1
Neighs:              0 ave           0 max           0 min
Histogram: 2 0 0 0 0 0 0 0 0 0
FullNghs:         8717 ave        8853 max        8581 min
Histogram: 1 0 0 0 0 0 0 0 0 1

Total # of neighbors = 17434
Ave neighs/atom = 34.050781
Neighbor list builds = 0
Dangerous builds = 0

write_data cell.data
System init for write_data ...
WARNING: One or more atoms are time integrated more than once (../modify.cpp:296)
Total wall time: 0:00:30
