

units metal
timestep 0.001
boundary p p p

lattice         diamond 5.43
Lattice spacing in x,y,z = 5.43 5.43 5.43
region          box block 0 ${N} 0 ${N} 0 ${N}
region          box block 0 4 0 ${N} 0 ${N}
region          box block 0 4 0 4 0 ${N}
region          box block 0 4 0 4 0 4
create_box      1 box
Created orthogonal box = (0 0 0) to (21.72 21.72 21.72)
  1 by 1 by 2 MPI processor grid
create_atoms    1 box
Created 512 atoms
  using lattice units in orthogonal box = (0 0 0) to (21.72 21.72 21.72)
  create_atoms CPU = 0.000 seconds

timestep ${dt}
timestep 0.003

mass 1 28.0855
labelmap atom 1 Si

pair_style sw
pair_coeff * * Si.sw Si
Reading sw potential file Si.sw with DATE: 2007-06-11

thermo 100
thermo_style	custom step time dt temp pe ke press vol
thermo_modify	line one flush yes format 1 "ec %8lu" flush yes


velocity all create 300.0 4928459 mom yes rot yes dist gaussian

variable t equal time
fix myhalt all halt 100 v_t >= 30.0 error continue

fix NVE all nve

run 10000000

CITE-CITE-CITE-CITE-CITE-CITE-CITE-CITE-CITE-CITE-CITE-CITE-CITE

Your simulation uses code contributions which should be cited:

- Type Label Framework: https://doi.org/10.1021/acs.jpcb.3c08419

@Article{Gissinger24,
 author = {Jacob R. Gissinger, Ilia Nikiforov, Yaser Afshar, Brendon Waters, Moon-ki Choi, Daniel S. Karls, Alexander Stukowski, Wonpil Im, Hendrik Heinz, Axel Kohlmeyer, and Ellad B. Tadmor},
 title = {Type Label Framework for Bonded Force Fields in LAMMPS},
 journal = {J. Phys. Chem. B},
 year =    2024,
 volume =  128,
 number =  13,
 pages =   {3282--3297}
}

CITE-CITE-CITE-CITE-CITE-CITE-CITE-CITE-CITE-CITE-CITE-CITE-CITE

Neighbor list info ...
  update: every = 1 steps, delay = 0 steps, check = yes
  max neighbors/atom: 2000, page size: 100000
  master list distance cutoff = 5.77118
  ghost atom cutoff = 5.77118
  binsize = 2.88559, bins = 8 8 8
  1 neighbor lists, perpetual/occasional/extra = 1 0 0
  (1) pair sw, perpetual
      attributes: full, newton on
      pair build: full/bin/atomonly
      stencil: full/bin/3d
      bin: standard
Per MPI rank memory allocation (min/avg/max) = 3.237 | 3.237 | 3.237 Mbytes
   Step          Time            Dt            Temp          PotEng         KinEng         Press          Volume    
ec        0  0              0.003          300           -2220.3383      19.81558       2598.169       10246.592    
ec      100  0.3            0.003          152.58442     -2210.4695      10.078496      2358.6207      10246.592    
ec      200  0.6            0.003          151.40384     -2210.3835      10.000516      2398.7075      10246.592    
ec      300  0.9            0.003          150.06208     -2210.2796      9.9118903      2531.4416      10246.592    
ec      400  1.2            0.003          140.87805     -2209.6748      9.3052679      2352.3588      10246.592    
ec      500  1.5            0.003          138.14591     -2209.4897      9.1248047      2482.516       10246.592    
ec      600  1.8            0.003          151.3105      -2210.3602      9.9943509      2524.043       10246.592    
ec      700  2.1            0.003          135.19707     -2209.2948      8.9300279      2467.8391      10246.592    
ec      800  2.4            0.003          127.7106      -2208.815       8.4355321      2202.9569      10246.592    
ec      900  2.7            0.003          182.33088     -2212.4618      12.043307      2359.0775      10246.592    
ec     1000  3              0.003          160.19935     -2210.9653      10.581477      2540.6762      10246.592    
ec     1100  3.3            0.003          144.27925     -2209.8976      9.5299237      2440.6362      10246.592    
ec     1200  3.6            0.003          156.4681      -2210.7113      10.335021      2506.9652      10246.592    
ec     1300  3.9            0.003          144.56277     -2209.9291      9.5486505      2370.9895      10246.592    
ec     1400  4.2            0.003          152.73507     -2210.4789      10.088447      2243.0442      10246.592    
ec     1500  4.5            0.003          147.78968     -2210.1398      9.7617945      2361.7591      10246.592    
ec     1600  4.8            0.003          137.69885     -2209.4632      9.0952753      2415.0315      10246.592    
ec     1700  5.1            0.003          145.24818     -2209.9683      9.5939232      2362.4818      10246.592    
ec     1800  5.4            0.003          139.31871     -2209.5686      9.2022701      2319.0975      10246.592    
ec     1900  5.7            0.003          128.69491     -2208.8547      8.500548       2466.1412      10246.592    
ec     2000  6              0.003          149.2352      -2210.2274      9.8572735      2481.0042      10246.592    
ec     2100  6.3            0.003          157.24556     -2210.7669      10.386374      2425.738       10246.592    
ec     2200  6.6            0.003          139.35323     -2209.576       9.2045501      2417.7946      10246.592    
ec     2300  6.9            0.003          166.15987     -2211.3662      10.975181      2442.8233      10246.592    
ec     2400  7.2            0.003          156.29648     -2210.7037      10.323685      2411.5963      10246.592    
ec     2500  7.5            0.003          149.41144     -2210.2521      9.8689144      2403.4116      10246.592    
ec     2600  7.8            0.003          156.77937     -2210.7374      10.355581      2495.3855      10246.592    
ec     2700  8.1            0.003          154.07859     -2210.5625      10.177189      2348.705       10246.592    
ec     2800  8.4            0.003          136.8605      -2209.4128      9.0399007      2298.0158      10246.592    
ec     2900  8.7            0.003          154.7231      -2210.6054      10.21976       2382.9372      10246.592    
ec     3000  9              0.003          156.35899     -2210.7096      10.327813      2468.1314      10246.592    
ec     3100  9.3            0.003          122.87296     -2208.4716      8.1159966      2304.3002      10246.592    
ec     3200  9.6            0.003          139.99692     -2209.6117      9.2470673      2452.2963      10246.592    
ec     3300  9.9            0.003          143.13933     -2209.8307      9.4546297      2333.4854      10246.592    
ec     3400  10.2           0.003          146.43243     -2210.0571      9.6721451      2326.8767      10246.592    
ec     3500  10.5           0.003          161.54313     -2211.0633      10.670236      2424.1047      10246.592    
ec     3600  10.8           0.003          144.88206     -2209.9451      9.5697403      2425.5974      10246.592    
ec     3700  11.1           0.003          162.41693     -2211.1199      10.727952      2382.3978      10246.592    
ec     3800  11.4           0.003          139.08053     -2209.5647      9.1865378      2184.1398      10246.592    
ec     3900  11.7           0.003          157.90949     -2210.8065      10.430227      2463.2863      10246.592    
ec     4000  12             0.003          135.48784     -2209.3129      8.9492338      2400.0224      10246.592    
ec     4100  12.3           0.003          144.48641     -2209.9138      9.5436071      2372.7985      10246.592    
ec     4200  12.6           0.003          147.36021     -2210.1095      9.7334268      2386.732       10246.592    
ec     4300  12.9           0.003          152.73189     -2210.479       10.088237      2266.7175      10246.592    
ec     4400  13.2           0.003          148.26589     -2210.1709      9.7932486      2384.665       10246.592    
ec     4500  13.5           0.003          142.89572     -2209.8041      9.4385389      2458.2758      10246.592    
ec     4600  13.8           0.003          149.80951     -2210.2645      9.8952077      2520.0118      10246.592    
ec     4700  14.1           0.003          148.96342     -2210.2108      9.8393223      2447.606       10246.592    
ec     4800  14.4           0.003          149.93718     -2210.2838      9.903641       2305.2695      10246.592    
ec     4900  14.7           0.003          156.20538     -2210.6934      10.317668      2434.2742      10246.592    
ec     5000  15             0.003          152.52824     -2210.4539      10.074785      2406.0547      10246.592    
ec     5100  15.3           0.003          160.04277     -2210.9648      10.571135      2317.6541      10246.592    
ec     5200  15.6           0.003          153.52566     -2210.523       10.140667      2370.5902      10246.592    
ec     5300  15.9           0.003          140.09353     -2209.628       9.2534487      2295.6576      10246.592    
ec     5400  16.2           0.003          133.2225      -2209.1612      8.799604       2336.9458      10246.592    
ec     5500  16.5           0.003          150.00647     -2210.2829      9.9082177      2418.1464      10246.592    
ec     5600  16.8           0.003          153.39846     -2210.5051      10.132265      2511.2274      10246.592    
ec     5700  17.1           0.003          149.99197     -2210.2867      9.9072599      2359.749       10246.592    
ec     5800  17.4           0.003          151.16801     -2210.3582      9.9849396      2436.3627      10246.592    
ec     5900  17.7           0.003          149.48187     -2210.2506      9.8735665      2354.9053      10246.592    
ec     6000  18             0.003          165.54145     -2211.3228      10.934333      2481.85        10246.592    
ec     6100  18.3           0.003          164.98041     -2211.2855      10.897275      2431.5319      10246.592    
ec     6200  18.6           0.003          156.63897     -2210.7225      10.346307      2444.2885      10246.592    
ec     6300  18.9           0.003          152.19722     -2210.4392      10.052921      2290.6984      10246.592    
ec     6400  19.2           0.003          145.3734      -2209.988       9.6021942      2266.3983      10246.592    
ec     6500  19.5           0.003          150.83951     -2210.3385      9.9632414      2427.512       10246.592    
ec     6600  19.8           0.003          155.34927     -2210.6407      10.26112       2403.5887      10246.592    
ec     6700  20.1           0.003          154.09164     -2210.5539      10.178051      2487.9939      10246.592    
ec     6800  20.4           0.003          146.14001     -2210.0265      9.6528304      2398.4477      10246.592    
ec     6900  20.7           0.003          152.79869     -2210.4789      10.092649      2398.0977      10246.592    
ec     7000  21             0.003          141.08987     -2209.6833      9.3192589      2503.8854      10246.592    
ec     7100  21.3           0.003          147.40202     -2210.1033      9.7361886      2508.1101      10246.592    
ec     7200  21.6           0.003          164.28985     -2211.238       10.851662      2420.0261      10246.592    
ec     7300  21.9           0.003          154.82255     -2210.6077      10.226329      2432.8596      10246.592    
ec     7400  22.2           0.003          141.70732     -2209.7376      9.3600423      2355.2522      10246.592    
ec     7500  22.5           0.003          140.31779     -2209.6422      9.2682611      2325.6438      10246.592    
ec     7600  22.8           0.003          145.72032     -2209.9974      9.6251091      2367.6214      10246.592    
ec     7700  23.1           0.003          148.91242     -2210.2123      9.8359536      2401.3779      10246.592    
ec     7800  23.4           0.003          148.23529     -2210.172       9.7912277      2321.3892      10246.592    
ec     7900  23.7           0.003          139.24451     -2209.5585      9.1973693      2459.4885      10246.592    
ec     8000  24             0.003          151.72337     -2210.395       10.021622      2482.8765      10246.592    
ec     8100  24.3           0.003          140.41741     -2209.6495      9.2748416      2370.0198      10246.592    
ec     8200  24.6           0.003          157.97805     -2210.8114      10.434756      2479.9863      10246.592    
ec     8300  24.9           0.003          149.15111     -2210.2198      9.8517193      2465.5608      10246.592    
ec     8400  25.2           0.003          142.87137     -2209.8138      9.43693        2347.483       10246.592    
ec     8500  25.5           0.003          145.55737     -2209.9856      9.614346       2417.3039      10246.592    
ec     8600  25.8           0.003          151.37421     -2210.3713      9.9985591      2471.8077      10246.592    
ec     8700  26.1           0.003          139.91745     -2209.6192      9.2418184      2284.1549      10246.592    
ec     8800  26.4           0.003          141.97152     -2209.7557      9.3774932      2291.8909      10246.592    
ec     8900  26.7           0.003          155.13198     -2210.6275      10.246767      2416.6998      10246.592    
ec     9000  27             0.003          152.12859     -2210.4311      10.048387      2377.7196      10246.592    
ec     9100  27.3           0.003          150.72607     -2210.3296      9.9557482      2503.5292      10246.592    
ec     9200  27.6           0.003          159.96283     -2210.9468      10.565854      2466.9485      10246.592    
ec     9300  27.9           0.003          150.11491     -2210.2994      9.9153799      2355.1124      10246.592    
ec     9400  28.2           0.003          146.94734     -2210.0836      9.706156       2341.7782      10246.592    
ec     9500  28.5           0.003          148.52441     -2210.1844      9.8103246      2519.4366      10246.592    
ec     9600  28.8           0.003          151.30276     -2210.3761      9.9938402      2376.6328      10246.592    
ec     9700  29.1           0.003          146.94811     -2210.079       9.7062068      2424.9993      10246.592    
ec     9800  29.4           0.003          143.86388     -2209.8891      9.5024873      2258.6863      10246.592    
ec     9900  29.7           0.003          141.4093      -2209.7194      9.3403579      2310.5806      10246.592    
Fix halt condition for fix-id myhalt met on step 10000 with value 30 (../fix_halt.cpp:240)
ec    10000  30             0.003          150.56856     -2210.3251      9.9453444      2344.7218      10246.592    
Loop time of 1.98233 on 2 procs for 10000 steps with 512 atoms

Performance: 1307.554 ns/day, 0.018 hours/ns, 5044.574 timesteps/s, 2.583 Matom-step/s
97.6% CPU use with 2 MPI tasks x no OpenMP threads

MPI task timing breakdown:
Section |  min time  |  avg time  |  max time  |%varavg| %total
---------------------------------------------------------------
Pair    | 1.7774     | 1.7784     | 1.7794     |   0.1 | 89.71
Neigh   | 0          | 0          | 0          |   0.0 |  0.00
Comm    | 0.16518    | 0.16604    | 0.1669     |   0.2 |  8.38
Output  | 0.00077263 | 0.0015459  | 0.0023192  |   2.0 |  0.08
Modify  | 0.016091   | 0.017086   | 0.018081   |   0.8 |  0.86
Other   |            | 0.01924    |            |       |  0.97

Nlocal:            256 ave         256 max         256 min
Histogram: 2 0 0 0 0 0 0 0 0 0
Nghost:           1081 ave        1081 max        1081 min
Histogram: 2 0 0 0 0 0 0 0 0 0
Neighs:              0 ave           0 max           0 min
Histogram: 2 0 0 0 0 0 0 0 0 0
FullNghs:         8704 ave        8704 max        8704 min
Histogram: 2 0 0 0 0 0 0 0 0 0

Total # of neighbors = 17408
Ave neighs/atom = 34
Neighbor list builds = 0
Dangerous builds = 0

unfix myhalt

fix NPT all npt temp 300 300 ${tau_T} iso 0.0 0.0 1.0
fix NPT all npt temp 300 300 0.1 iso 0.0 0.0 1.0



fix myhalt all halt 100 v_t >= 60.0 error continue

run 10000000
WARNING: One or more atoms are time integrated more than once (../modify.cpp:296)
Per MPI rank memory allocation (min/avg/max) = 3.237 | 3.237 | 3.237 Mbytes
   Step          Time            Dt            Temp          PotEng         KinEng         Press          Volume    
ec    10000  30             0.003          150.56856     -2210.3251      9.9453444      2344.7218      10246.592    
ec    10100  30.3           0.003          2681.6501     -2007.323       177.12818      389.67703      10796.873    
ec    10200  30.6           0.003          3450.1937     -1921.5719      227.89197     -3142.1671      11048.198    
ec    10300  30.9           0.003          2747.2012     -2029.9222      181.45795      551.07442      10748.259    
ec    10400  31.2           0.003          2196.7088     -2040.2131      145.09687      1945.053       10679.983    
ec    10500  31.5           0.003          2073.1429     -2052.3928      136.9351      -136.51101      10671.485    
ec    10600  31.8           0.003          2124.1759     -2068.7725      140.30593     -2520.1629      10671.001    
ec    10700  32.1           0.003          1939.3944     -2070.1358      128.10075     -2124.2877      10649.538    
ec    10800  32.4           0.003          2061.1847     -2089.6169      136.14523     -66.045778      10603.55     
ec    10900  32.7           0.003          1806.0073     -2076.488       119.29027      3407.1285      10564.633    
ec    11000  33             0.003          1441.6829     -2063.6115      95.225947      2702.8448      10562.042    
ec    11100  33.3           0.003          1780.3816     -2102.0851      117.59765     -2922.3791      10587.072    
ec    11200  33.6           0.003          1997.946      -2117.8562      131.9682      -3842.3988      10593.75     
ec    11300  33.9           0.003          1653.309      -2099.3773      109.20426     -1119.5915      10563.846    
ec    11400  34.2           0.003          1326.2842     -2087.9535      87.603636      1940.5972      10525.252    
ec    11500  34.5           0.003          1115.2462     -2081.7858      73.664172      3431.1265      10504.202    
ec    11600  34.8           0.003          1409.7535     -2110.1524      93.116944      57.853778      10513.946    
ec    11700  35.1           0.003          1831.3943     -2142.9193      120.96714     -3444.1092      10532.256    
ec    11800  35.4           0.003          1485.5805     -2119.6349      98.125464     -2594.2004      10535.767    
ec    11900  35.7           0.003          1353.9889     -2112.7577      89.433589     -239.69961      10514.217    
ec    12000  36             0.003          1221.4434     -2110.7532      80.678698      1589.6385      10484.04     
ec    12100  36.3           0.003          1275.3555     -2119.42        84.2397        2074.1742      10469.759    
ec    12200  36.6           0.003          1288.0517     -2124.1992      85.078305      452.98036      10483.48     
ec    12300  36.9           0.003          1303.9531     -2127.9016      86.128626     -2557.9672      10508.889    
ec    12400  37.2           0.003          1301.6914     -2131.0656      85.979237     -3580.0166      10514.03     
ec    12500  37.5           0.003          1232.7221     -2127.2482      81.423682     -502.72125      10485.466    
ec    12600  37.8           0.003          1245.4481     -2131.7383      82.264256      2100.4483      10448.747    
ec    12700  38.1           0.003          1181.4018     -2129.8408      78.033874      2467.8889      10444.596    
ec    12800  38.4           0.003          1170.1343     -2131.1683      77.289631      50.441875      10468.001    
ec    12900  38.7           0.003          1157.1078     -2132.8902      76.429207     -1681.1168      10480.193    
ec    13000  39             0.003          1140.2071     -2132.942       75.312882     -1149.1122      10476.358    
ec    13100  39.3           0.003          1141.7891     -2135.0884      75.417377     -330.87782      10462.145    
ec    13200  39.6           0.003          1128.7428     -2136.036       74.555645      872.57852      10448.476    
ec    13300  39.9           0.003          1116.8828     -2136.5294      73.772271      934.55431      10446.325    
ec    13400  40.2           0.003          1112.4642     -2138.4323      73.480415     -529.17637      10457.038    
ec    13500  40.5           0.003          1089.111      -2137.4298      71.937885     -1509.0787      10469.484    
ec    13600  40.8           0.003          1099.2752     -2139.9115      72.609252     -1936.936       10468.273    
ec    13700  41.1           0.003          1074.3652     -2138.6775      70.963902      317.33032      10447.467    
ec    13800  41.4           0.003          1088.7075     -2141.403       71.911236      2317.3826      10420.878    
ec    13900  41.7           0.003          1059.7642     -2140.6013      69.999474      2693.8286      10418.105    
ec    14000  42             0.003          1058.4844     -2141.9928      69.914944     -1348.6713      10456.998    
ec    14100  42.3           0.003          1044.2581     -2141.7743      68.975269     -5602.5408      10502.019    
ec    14200  42.6           0.003          1043.1926     -2141.7675      68.904886     -4250.7778      10487.439    
ec    14300  42.9           0.003          1047.1791     -2143.2239      69.168205      1257.2868      10427.13     
ec    14400  43.2           0.003          1032.5336     -2142.9361      68.200841      3661.0022      10402.363    
ec    14500  43.5           0.003          1031.9021     -2144.7561      68.159128      1508.9595      10420.613    
ec    14600  43.8           0.003          1013.2953     -2143.692       66.930116     -1097.9251      10449.874    
ec    14700  44.1           0.003          1018.9978     -2145.2424      67.306777     -3002.6506      10466.171    
ec    14800  44.4           0.003          1003.9026     -2144.0066      66.309711     -1604.195       10454.185    
ec    14900  44.7           0.003          1017.512      -2146.2421      67.208637      838.2389       10424.054    
ec    15000  45             0.003          995.8515      -2144.9046      65.777918      2870.103       10405.574    
ec    15100  45.3           0.003          1004.6312     -2147.1934      66.357835      1128.7186      10418.597    
ec    15200  45.6           0.003          982.12019     -2145.6399      64.870938     -1572.6949      10449.95     
ec    15300  45.9           0.003          993.13559     -2147.3354      65.598527     -3411.7445      10465.304    
ec    15400  46.2           0.003          977.65672     -2145.9242      64.576118     -1365.391       10447.009    
ec    15500  46.5           0.003          992.55897     -2148.1326      65.56044       1209.4397      10415.502    
ec    15600  46.8           0.003          971.19135     -2146.7583      64.149067      2526.7557      10404.608    
ec    15700  47.1           0.003          980.72825     -2148.8221      64.778997      457.03962      10421.496    
ec    15800  47.4           0.003          961.24097     -2147.2942      63.491825     -1288.1528      10442.905    
ec    15900  47.7           0.003          972.88189     -2148.9877      64.26073      -2053.6046      10447.086    
ec    16000  48             0.003          957.58476     -2147.6325      63.250326     -505.51204      10433.864    
ec    16100  48.3           0.003          970.06033     -2149.5813      64.074361      627.87381      10417.937    
ec    16200  48.6           0.003          952.58247     -2148.2924      62.919914      1312.1923      10413.443    
ec    16300  48.9           0.003          960.5779      -2149.9976      63.448028     -23.598097      10423.536    
ec    16400  49.2           0.003          945.74832     -2148.7563      62.468506     -1177.4958      10438.163    
ec    16500  49.5           0.003          954.02262     -2150.1073      63.015039     -1854.693       10442.286    
ec    16600  49.8           0.003          944.27705     -2149.1234      62.371325     -401.90257      10429.167    
ec    16700  50.1           0.003          951.16376     -2150.4456      62.826206      1471.4736      10406.991    
ec    16800  50.4           0.003          942.11722     -2149.9142      62.228664      3035.1608      10391.805    
ec    16900  50.7           0.003          939.27157     -2150.9675      62.040704      275.18052      10417.982    
ec    17000  51             0.003          929.60703     -2150.1288      61.402342     -6070.4682      10486.049    
ec    17100  51.3           0.003          932.50694     -2150.1062      61.593887     -6633.3417      10492.241    
ec    17200  51.6           0.003          940.67677     -2150.6117      62.13352      -316.48817      10424.824    
ec    17300  51.9           0.003          933.58473     -2150.7212      61.665077      3840.7452      10381.675    
ec    17400  52.2           0.003          935.24378     -2151.6028      61.77466       2894.2052      10389.326    
ec    17500  52.5           0.003          921.26678     -2151.0221      60.851452     -321.28803      10423.846    
ec    17600  52.8           0.003          928.90138     -2151.8199      61.355732     -3002.729       10449.919    
ec    17700  53.1           0.003          917.56419     -2150.6931      60.606889     -2294.0393      10445.093    
ec    17800  53.4           0.003          932.31634     -2152.2485      61.581298     -4.5999533      10417.818    
ec    17900  53.7           0.003          916.46073     -2151.0253      60.534003      2302.1082      10396.562    
ec    18000  54             0.003          927.21381     -2152.7967      61.244265      1470.7636      10401.231    
ec    18100  54.3           0.003          909.52742     -2151.3654      60.076045     -523.43515      10424.958    
ec    18200  54.6           0.003          920.48726     -2152.7512      60.799964     -2517.3199      10442.702    
ec    18300  54.9           0.003          909.96817     -2151.4678      60.105158     -1661.3368      10436.517    
ec    18400  55.2           0.003          919.3471      -2152.743       60.724654      309.83589      10413.345    
ec    18500  55.5           0.003          912.10561     -2152.132       60.24634       1981.9887      10397.23     
ec    18600  55.8           0.003          911.8331      -2152.8848      60.22834       1142.2114      10404.298    
ec    18700  56.1           0.003          908.50637     -2152.6643      60.008603     -890.13124      10425.707    
ec    18800  56.4           0.003          904.36702     -2152.5261      59.735191     -1998.2665      10437.664    
ec    18900  56.7           0.003          911.5353      -2153.0669      60.20867      -1267.4878      10428.758    
ec    19000  57             0.003          901.8285      -2152.3705      59.567517      531.33584      10411.665    
ec    19100  57.3           0.003          912.16661     -2153.6665      60.250369      931.03827      10404.611    
ec    19200  57.6           0.003          896.73116     -2152.4778      59.230827      536.1653       10411.287    
ec    19300  57.9           0.003          908.40298     -2153.9305      60.001774     -844.26085      10422.387    
ec    19400  58.2           0.003          894.2553      -2152.4975      59.067292     -992.49846      10427.039    
ec    19500  58.5           0.003          906.31035     -2153.9417      59.863552     -765.15148      10421.57     
ec    19600  58.8           0.003          896.0939      -2152.8502      59.188735      436.69796      10411.386    
ec    19700  59.1           0.003          901.81233     -2153.9192      59.566449      709.37449      10406.286    
ec    19800  59.4           0.003          896.14143     -2153.4056      59.191875      279.73677      10411.723    
ec    19900  59.7           0.003          894.42959     -2153.6782      59.078804     -941.9369       10423.898    
Fix halt condition for fix-id myhalt met on step 20000 with value 60 (../fix_halt.cpp:240)
ec    20000  60             0.003          897.39115     -2153.8211      59.274421     -1838.7024      10432.798    
Loop time of 1.4724 on 2 procs for 10000 steps with 512 atoms

Performance: 1760.395 ns/day, 0.014 hours/ns, 6791.647 timesteps/s, 3.477 Matom-step/s
96.4% CPU use with 2 MPI tasks x no OpenMP threads

MPI task timing breakdown:
Section |  min time  |  avg time  |  max time  |%varavg| %total
---------------------------------------------------------------
Pair    | 1.2266     | 1.2303     | 1.2341     |   0.3 | 83.56
Neigh   | 0.0042527  | 0.0042833  | 0.0043139  |   0.0 |  0.29
Comm    | 0.12213    | 0.12599    | 0.12985    |   1.1 |  8.56
Output  | 0.00069155 | 0.0013738  | 0.002056   |   1.8 |  0.09
Modify  | 0.093597   | 0.094315   | 0.095032   |   0.2 |  6.41
Other   |            | 0.0161     |            |       |  1.09

Nlocal:            256 ave         258 max         254 min
Histogram: 1 0 0 0 0 0 0 0 0 1
Nghost:         1068.5 ave        1074 max        1063 min
Histogram: 1 0 0 0 0 0 0 0 0 1
Neighs:              0 ave           0 max           0 min
Histogram: 2 0 0 0 0 0 0 0 0 0
FullNghs:         8794 ave        8861 max        8727 min
Histogram: 1 0 0 0 0 0 0 0 0 1

Total # of neighbors = 17588
Ave neighs/atom = 34.351562
Neighbor list builds = 12
Dangerous builds = 0

unfix myhalt

fix myhalt all halt 100 v_t >= 90.0 error continue

unfix NPT

fix NVT all nvt temp 300 300 ${tau_T}
fix NVT all nvt temp 300 300 0.1

run 10000000
WARNING: One or more atoms are time integrated more than once (../modify.cpp:296)
Per MPI rank memory allocation (min/avg/max) = 3.237 | 3.237 | 3.237 Mbytes
   Step          Time            Dt            Temp          PotEng         KinEng         Press          Volume    
ec    20000  60             0.003          897.39115     -2153.8211      59.274421     -1838.7024      10432.798    
ec    20100  60.3           0.003          8362.9914     -1582.5431      552.39176      133703.55      10432.798    
ec    20200  60.6           0.003          3665.9596     -1949.606       242.14372      46593.055      10432.798    
ec    20300  60.9           0.003          2347.4215     -2037.7601      155.05173      25475.787      10432.798    
ec    20400  61.2           0.003          2077.1567     -2073.7931      137.20022      17335.044      10432.798    
ec    20500  61.5           0.003          1839.056      -2080.298       121.47321      15505.379      10432.798    
ec    20600  61.8           0.003          1745.7397     -2093.086       115.30949      12630.296      10432.798    
ec    20700  62.1           0.003          1650.1339     -2098.4982      108.99453      11283.231      10432.798    
ec    20800  62.4           0.003          1560.8685     -2103.1558      103.09838      10135.103      10432.798    
ec    20900  62.7           0.003          1526.5899     -2109.6753      100.83421      8671.5549      10432.798    
ec    21000  63             0.003          1442.9781     -2110.5245      95.311496      8355.202       10432.798    
ec    21100  63.3           0.003          1432.0978     -2116.9529      94.592831      6929.2708      10432.798    
ec    21200  63.6           0.003          1361.933      -2116.4834      89.958306      6950.3716      10432.798    
ec    21300  63.9           0.003          1357.6194     -2122.083       89.673386      5689.7535      10432.798    
ec    21400  64.2           0.003          1300.5337     -2121.2765      85.902768      5817.3508      10432.798    
ec    21500  64.5           0.003          1299.8454     -2126.1379      85.857306      4741.612       10432.798    
ec    21600  64.8           0.003          1251.2695     -2125.1358      82.648772      4896.1527      10432.798    
ec    21700  65.1           0.003          1252.8792     -2129.4211      82.755092      3986.7948      10432.798    
ec    21800  65.4           0.003          1212.4529     -2128.4596      80.08486       4118.3629      10432.798    
ec    21900  65.7           0.003          1211.173      -2131.9157      80.00032       3382.361       10432.798    
ec    22000  66             0.003          1181.0449     -2131.3784      78.010303      3445.4458      10432.798    
ec    22100  66.3           0.003          1175.3765     -2133.9467      77.63589       2877.715       10432.798    
ec    22200  66.6           0.003          1152.8705     -2133.7678      76.149324      2878.2347      10432.798    
ec    22300  66.9           0.003          1146.5223     -2135.8379      75.730016      2433.5919      10432.798    
ec    22400  67.2           0.003          1128.233      -2135.7879      74.521971      2398.691       10432.798    
ec    22500  67.5           0.003          1121.3627     -2137.4857      74.068175      2047.9333      10432.798    
ec    22600  67.8           0.003          1107.827      -2137.6426      73.174116      1974.138       10432.798    
ec    22700  68.1           0.003          1098.2933     -2138.8402      72.544397      1713.9184      10432.798    
ec    22800  68.4           0.003          1089.1608     -2139.2323      71.941179      1601.6992      10432.798    
ec    22900  68.7           0.003          1078.8618     -2140.1113      71.26091       1409.4509      10432.798    
ec    23000  69             0.003          1071.7488     -2140.56        70.791081      1282.2516      10432.798    
ec    23100  69.3           0.003          1062.0683     -2141.2977      70.151663      1133.712       10432.798    
ec    23200  69.6           0.003          1056.9453     -2141.7998      69.813279      996.29477      10432.798    
ec    23300  69.9           0.003          1046.3437     -2142.3059      69.113024      889.56376      10432.798    
ec    23400  70.2           0.003          1043.4446     -2142.9061      68.921534      738.80158      10432.798    
ec    23500  70.5           0.003          1032.6104     -2143.2457      68.205914      663.99476      10432.798    
ec    23600  70.8           0.003          1030.4932     -2143.8345      68.066069      514.14771      10432.798    
ec    23700  71.1           0.003          1020.6552     -2144.1441      67.416251      455.41279      10432.798    
ec    23800  71.4           0.003          1019.2238     -2144.7078      67.321706      311.09939      10432.798    
ec    23900  71.7           0.003          1009.3615     -2144.9278      66.670277      267.67196      10432.798    
ec    24000  72             0.003          1008.8904     -2145.5027      66.639161      125.66328      10432.798    
ec    24100  72.3           0.003          999.31554     -2145.6617      66.006724      92.475363      10432.798    
ec    24200  72.6           0.003          998.88992     -2146.1776      65.978611     -38.156575      10432.798    
ec    24300  72.9           0.003          990.46624     -2146.3684      65.422211     -71.300295      10432.798    
ec    24400  73.2           0.003          990.04459     -2146.8169      65.39436      -187.5507       10432.798    
ec    24500  73.5           0.003          982.0583      -2146.9958      64.86685      -220.73071      10432.798    
ec    24600  73.8           0.003          981.81828     -2147.4005      64.850996     -324.80075      10432.798    
ec    24700  74.1           0.003          974.53839     -2147.5905      64.370146     -361.54879      10432.798    
ec    24800  74.4           0.003          973.85874     -2147.9027      64.325254     -446.99337      10432.798    
ec    24900  74.7           0.003          967.82905     -2148.1633      63.926981     -493.97232      10432.798    
ec    25000  75             0.003          966.73017     -2148.3817      63.854398     -559.32032      10432.798    
ec    25100  75.3           0.003          961.43298     -2148.6785      63.504508     -616.24317      10432.798    
ec    25200  75.6           0.003          959.98462     -2148.8155      63.408841     -662.56885      10432.798    
ec    25300  75.9           0.003          955.72543     -2149.1738      63.127513     -732.44089      10432.798    
ec    25400  76.2           0.003          953.49614     -2149.1951      62.980264     -755.01814      10432.798    
ec    25500  76.5           0.003          950.55704     -2149.6483      62.786131     -842.00046      10432.798    
ec    25600  76.8           0.003          947.61289     -2149.5584      62.591664     -840.63992      10432.798    
ec    25700  77.1           0.003          945.63135     -2150.08        62.46078      -944.17594      10432.798    
ec    25800  77.4           0.003          941.96537     -2149.8841      62.218634     -919.1761       10432.798    
ec    25900  77.7           0.003          941.25599     -2150.4998      62.171779     -1041.7483      10432.798    
ec    26000  78             0.003          936.58509     -2150.1755      61.863257     -990.0496       10432.798    
ec    26100  78.3           0.003          937.21768     -2150.8974      61.905041     -1133.7039      10432.798    
ec    26200  78.6           0.003          931.64166     -2150.4544      61.536733     -1056.2209      10432.798    
ec    26300  78.9           0.003          933.38804     -2151.2633      61.652085     -1220.039       10432.798    
ec    26400  79.2           0.003          926.86639     -2150.7036      61.221317     -1116.8915      10432.798    
ec    26500  79.5           0.003          929.98423     -2151.6201      61.427257     -1302.4297      10432.798    
ec    26600  79.8           0.003          922.36682     -2150.9331      60.924113     -1172.4452      10432.798    
ec    26700  80.1           0.003          926.76715     -2151.9527      61.214762     -1379.7642      10432.798    
ec    26800  80.4           0.003          918.18433     -2151.1525      60.647851     -1224.8609      10432.798    
ec    26900  80.7           0.003          923.74134     -2152.2619      61.014902     -1452.4779      10432.798    
ec    27000  81             0.003          914.1599      -2151.3512      60.38203      -1273.276       10432.798    
ec    27100  81.3           0.003          921.01204     -2152.5605      60.834627     -1521.3525      10432.798    
ec    27200  81.6           0.003          910.40844     -2151.5405      60.134238     -1318.7033      10432.798    
ec    27300  81.9           0.003          918.36764     -2152.8336      60.659959     -1585.4453      10432.798    
ec    27400  82.2           0.003          906.90216     -2151.7225      59.902642     -1362.2072      10432.798    
ec    27500  82.5           0.003          915.89351     -2153.0886      60.496538     -1645.3609      10432.798    
ec    27600  82.8           0.003          903.57226     -2151.8928      59.682695     -1403.21        10432.798    
ec    27700  83.1           0.003          913.58597     -2153.3291      60.344121     -1701.2517      10432.798    
ec    27800  83.4           0.003          900.50335     -2152.0606      59.479988     -1442.9292      10432.798    
ec    27900  83.7           0.003          911.30697     -2153.5444      60.193588     -1752.4954      10432.798    
ec    28000  84             0.003          897.64734     -2152.2247      59.291343     -1481.7038      10432.798    
ec    28100  84.3           0.003          909.15958     -2153.7443      60.051748     -1799.6812      10432.798    
ec    28200  84.6           0.003          894.98926     -2152.3847      59.115772     -1519.3781      10432.798    
ec    28300  84.9           0.003          907.06756     -2153.9253      59.913567     -1842.6166      10432.798    
ec    28400  85.2           0.003          892.5771      -2152.5465      58.956444     -1556.9793      10432.798    
ec    28500  85.5           0.003          904.98222     -2154.0836      59.775826     -1881.0519      10432.798    
ec    28600  85.8           0.003          890.36677     -2152.7082      58.810447     -1594.4002      10432.798    
ec    28700  86.1           0.003          902.97301     -2154.2267      59.643114     -1915.4715      10432.798    
ec    28800  86.4           0.003          888.365       -2152.8709      58.678226     -1631.8191      10432.798    
ec    28900  86.7           0.003          900.94703     -2154.3486      59.509294     -1945.599       10432.798    
ec    29000  87             0.003          886.59202     -2153.0378      58.561118     -1669.8301      10432.798    
ec    29100  87.3           0.003          898.92398     -2154.4515      59.375668     -1971.5365      10432.798    
ec    29200  87.6           0.003          885.01095     -2153.2067      58.456685     -1708.1468      10432.798    
ec    29300  87.9           0.003          896.92155     -2154.5388      59.243403     -1993.6508      10432.798    
ec    29400  88.2           0.003          883.63335     -2153.3791      58.365691     -1747.0535      10432.798    
ec    29500  88.5           0.003          894.87738     -2154.6063      59.108382     -2011.7865      10432.798    
ec    29600  88.8           0.003          882.45902     -2153.556       58.288125     -1786.6697      10432.798    
ec    29700  89.1           0.003          892.83855     -2154.6587      58.973713     -2026.3226      10432.798    
ec    29800  89.4           0.003          881.45517     -2153.7349      58.221819     -1826.6913      10432.798    
ec    29900  89.7           0.003          890.78726     -2154.6965      58.838222     -2037.5455      10432.798    
Fix halt condition for fix-id myhalt met on step 30000 with value 90 (../fix_halt.cpp:240)
ec    30000  90             0.003          880.63206     -2153.917       58.167451     -1867.2826      10432.798    
Loop time of 1.28044 on 2 procs for 10000 steps with 512 atoms

Performance: 2024.301 ns/day, 0.012 hours/ns, 7809.803 timesteps/s, 3.999 Matom-step/s
95.1% CPU use with 2 MPI tasks x no OpenMP threads

MPI task timing breakdown:
Section |  min time  |  avg time  |  max time  |%varavg| %total
---------------------------------------------------------------
Pair    | 1.094      | 1.0948     | 1.0956     |   0.1 | 85.50
Neigh   | 0          | 0          | 0          |   0.0 |  0.00
Comm    | 0.11838    | 0.1189     | 0.11943    |   0.2 |  9.29
Output  | 0.00070387 | 0.00099836 | 0.0012928  |   0.0 |  0.08
Modify  | 0.047513   | 0.048244   | 0.048975   |   0.3 |  3.77
Other   |            | 0.01748    |            |       |  1.36

Nlocal:            256 ave         256 max         256 min
Histogram: 2 0 0 0 0 0 0 0 0 0
Nghost:           1081 ave        1081 max        1081 min
Histogram: 2 0 0 0 0 0 0 0 0 0
Neighs:              0 ave           0 max           0 min
Histogram: 2 0 0 0 0 0 0 0 0 0
FullNghs:         8704 ave        8704 max        8704 min
Histogram: 2 0 0 0 0 0 0 0 0 0

Total # of neighbors = 17408
Ave neighs/atom = 34
Neighbor list builds = 0
Dangerous builds = 0

write_data cell.data
System init for write_data ...
WARNING: One or more atoms are time integrated more than once (../modify.cpp:296)
Total wall time: 0:00:04
