

units metal
timestep 0.001
boundary p p p

lattice         diamond 5.43
Lattice spacing in x,y,z = 5.43 5.43 5.43
region          box block 0 ${N} 0 ${N} 0 ${N}
region          box block 0 4 0 ${N} 0 ${N}
region          box block 0 4 0 4 0 ${N}
region          box block 0 4 0 4 0 4
create_box      1 box
Created orthogonal box = (0 0 0) to (21.72 21.72 21.72)
  1 by 1 by 2 MPI processor grid
create_atoms    1 box
Created 512 atoms
  using lattice units in orthogonal box = (0 0 0) to (21.72 21.72 21.72)
  create_atoms CPU = 0.000 seconds

timestep ${dt}
timestep 0.001

mass 1 28.0855
labelmap atom 1 Si

pair_style sw
pair_coeff * * Si.sw Si
Reading sw potential file Si.sw with DATE: 2007-06-11

thermo 100
thermo_style	custom step time dt temp pe ke press vol
thermo_modify	line one flush yes format 1 "ec %8lu" flush yes


velocity all create 300.0 4928459 mom yes rot yes dist gaussian

variable t equal time
fix myhalt all halt 100 v_t >= 30.0 error continue

fix NVE all nve

run 10000000

CITE-CITE-CITE-CITE-CITE-CITE-CITE-CITE-CITE-CITE-CITE-CITE-CITE

Your simulation uses code contributions which should be cited:

- Type Label Framework: https://doi.org/10.1021/acs.jpcb.3c08419

@Article{Gissinger24,
 author = {Jacob R. Gissinger, Ilia Nikiforov, Yaser Afshar, Brendon Waters, Moon-ki Choi, Daniel S. Karls, Alexander Stukowski, Wonpil Im, Hendrik Heinz, Axel Kohlmeyer, and Ellad B. Tadmor},
 title = {Type Label Framework for Bonded Force Fields in LAMMPS},
 journal = {J. Phys. Chem. B},
 year =    2024,
 volume =  128,
 number =  13,
 pages =   {3282--3297}
}

CITE-CITE-CITE-CITE-CITE-CITE-CITE-CITE-CITE-CITE-CITE-CITE-CITE

Neighbor list info ...
  update: every = 1 steps, delay = 0 steps, check = yes
  max neighbors/atom: 2000, page size: 100000
  master list distance cutoff = 5.77118
  ghost atom cutoff = 5.77118
  binsize = 2.88559, bins = 8 8 8
  1 neighbor lists, perpetual/occasional/extra = 1 0 0
  (1) pair sw, perpetual
      attributes: full, newton on
      pair build: full/bin/atomonly
      stencil: full/bin/3d
      bin: standard
Per MPI rank memory allocation (min/avg/max) = 3.237 | 3.237 | 3.237 Mbytes
   Step          Time            Dt            Temp          PotEng         KinEng         Press          Volume    
ec        0  0              0.001          300           -2220.3383      19.81558       2598.169       10246.592    
ec      100  0.1            0.001          141.62619     -2209.8589      9.3546841      2568.0047      10246.592    
ec      200  0.2            0.001          125.9437      -2208.8216      8.318825       2582.0397      10246.592    
ec      300  0.3            0.001          151.18344     -2210.4941      9.9859587      2354.0266      10246.592    
ec      400  0.4            0.001          128.63207     -2209.0023      8.4963968      2237.5402      10246.592    
ec      500  0.5            0.001          152.34169     -2210.5704      10.062463      2289.8416      10246.592    
ec      600  0.6            0.001          156.11939     -2210.8204      10.311988      2362.261       10246.592    
ec      700  0.7            0.001          119.08127     -2208.3694      7.865548       2327.6415      10246.592    
ec      800  0.8            0.001          159.41646     -2211.0389      10.529766      2317.7828      10246.592    
ec      900  0.9            0.001          155.34506     -2210.7678      10.260842      2496.9124      10246.592    
ec     1000  1              0.001          130.03519     -2209.0935      8.5890756      2511.9345      10246.592    
ec     1100  1.1            0.001          161.89117     -2211.2021      10.693225      2423.997       10246.592    
ec     1200  1.2            0.001          150.0495      -2210.4186      9.9110598      2301.4262      10246.592    
ec     1300  1.3            0.001          139.06231     -2209.6912      9.1853348      2382.4417      10246.592    
ec     1400  1.4            0.001          162.4685      -2211.2402      10.731359      2255.3615      10246.592    
ec     1500  1.5            0.001          146.45532     -2210.1808      9.6736571      2422.5102      10246.592    
ec     1600  1.6            0.001          142.64855     -2209.9278      9.4222126      2456.3418      10246.592    
ec     1700  1.7            0.001          163.69666     -2211.3218      10.812481      2357.4701      10246.592    
ec     1800  1.8            0.001          166.88455     -2211.5317      11.023047      2442.9654      10246.592    
ec     1900  1.9            0.001          150.734       -2210.4616      9.956272       2543.5925      10246.592    
ec     2000  2              0.001          156.63294     -2210.8536      10.345909      2523.1939      10246.592    
ec     2100  2.1            0.001          131.20681     -2209.171       8.6664637      2453.8429      10246.592    
ec     2200  2.2            0.001          152.43435     -2210.5764      10.068584      2388.1352      10246.592    
ec     2300  2.3            0.001          130.73819     -2209.1417      8.6355105      2244.9642      10246.592    
ec     2400  2.4            0.001          118.23842     -2208.3151      7.8098761      2224.7379      10246.592    
ec     2500  2.5            0.001          150.87991     -2210.4747      9.9659096      2298.1573      10246.592    
ec     2600  2.6            0.001          149.75554     -2210.399       9.8916433      2382.8971      10246.592    
ec     2700  2.7            0.001          139.64277     -2209.7277      9.2236752      2495.5696      10246.592    
ec     2800  2.8            0.001          172.31754     -2211.8918      11.381907      2420.7148      10246.592    
ec     2900  2.9            0.001          147.55318     -2210.2529      9.7461729      2434.1867      10246.592    
ec     3000  3              0.001          155.79406     -2210.7968      10.290499      2542.7213      10246.592    
ec     3100  3.1            0.001          162.58254     -2211.2461      10.738891      2574.8686      10246.592    
ec     3200  3.2            0.001          164.97546     -2211.4052      10.896948      2433.1808      10246.592    
ec     3300  3.3            0.001          150.03226     -2210.4171      9.909921       2388.4664      10246.592    
ec     3400  3.4            0.001          125.33278     -2208.7832      8.2784725      2353.4133      10246.592    
ec     3500  3.5            0.001          150.76358     -2210.4651      9.9582263      2313.7247      10246.592    
ec     3600  3.6            0.001          162.78433     -2211.2607      10.75222       2413.155       10246.592    
ec     3700  3.7            0.001          146.45302     -2210.1801      9.6735052      2394.6262      10246.592    
ec     3800  3.8            0.001          143.87444     -2210.0075      9.503185       2630.1779      10246.592    
ec     3900  3.9            0.001          137.95408     -2209.618       9.1121338      2402.3575      10246.592    
ec     4000  4              0.001          163.93327     -2211.3375      10.82811       2355.9777      10246.592    
ec     4100  4.1            0.001          170.03524     -2211.7396      11.231156      2487.8655      10246.592    
ec     4200  4.2            0.001          133.71791     -2209.3377      8.8323264      2320.5617      10246.592    
ec     4300  4.3            0.001          146.79065     -2210.2043      9.6958066      2234.4156      10246.592    
ec     4400  4.4            0.001          151.06538     -2210.4847      9.9781608      2370.5297      10246.592    
ec     4500  4.5            0.001          139.50311     -2209.7207      9.21445        2375.8752      10246.592    
ec     4600  4.6            0.001          159.16728     -2211.0214      10.513307      2389.7814      10246.592    
ec     4700  4.7            0.001          151.23365     -2210.4949      9.989275       2561.959       10246.592    
ec     4800  4.8            0.001          145.97245     -2210.1489      9.6417627      2383.3462      10246.592    
ec     4900  4.9            0.001          174.47127     -2212.033       11.524165      2400.0686      10246.592    
ec     5000  5              0.001          143.35208     -2209.9751      9.4686823      2410.1722      10246.592    
ec     5100  5.1            0.001          144.41036     -2210.0451      9.5385834      2402.8612      10246.592    
ec     5200  5.2            0.001          130.08562     -2209.0985      8.5924065      2287.6255      10246.592    
ec     5300  5.3            0.001          134.25359     -2209.3725      8.8677091      2383.9411      10246.592    
ec     5400  5.4            0.001          149.34824     -2210.373       9.8647401      2265.5273      10246.592    
ec     5500  5.5            0.001          148.04633     -2210.2858      9.7787467      2249.7747      10246.592    
ec     5600  5.6            0.001          144.13137     -2210.0265      9.520156       2411.7979      10246.592    
ec     5700  5.7            0.001          170.73302     -2211.7871      11.277246      2347.3067      10246.592    
ec     5800  5.8            0.001          162.50608     -2211.2415      10.733841      2489.1155      10246.592    
ec     5900  5.9            0.001          144.37937     -2210.0424      9.5365363      2522.5685      10246.592    
ec     6000  6              0.001          159.44131     -2211.0392      10.531407      2432.5533      10246.592    
ec     6100  6.1            0.001          139.23542     -2209.7037      9.196769       2361.8981      10246.592    
ec     6200  6.2            0.001          137.84705     -2209.6107      9.1050643      2402.0003      10246.592    
ec     6300  6.3            0.001          165.95658     -2211.4701      10.961753      2418.307       10246.592    
ec     6400  6.4            0.001          147.46683     -2210.2471      9.740469       2394.7279      10246.592    
ec     6500  6.5            0.001          146.16575     -2210.1614      9.6545304      2325.301       10246.592    
ec     6600  6.6            0.001          146.77369     -2210.2018      9.6946859      2368.8203      10246.592    
ec     6700  6.7            0.001          142.61084     -2209.9264      9.4197218      2323.1281      10246.592    
ec     6800  6.8            0.001          151.68859     -2210.5266      10.019324      2401.869       10246.592    
ec     6900  6.9            0.001          166.04048     -2211.4754      10.967295      2519.9094      10246.592    
ec     7000  7              0.001          134.58996     -2209.3951      8.8899272      2452.4045      10246.592    
ec     7100  7.1            0.001          155.90386     -2210.8049      10.297751      2439.6735      10246.592    
ec     7200  7.2            0.001          164.07636     -2211.3462      10.837561      2408.8768      10246.592    
ec     7300  7.3            0.001          153.3025      -2210.6337      10.125927      2372.9067      10246.592    
ec     7400  7.4            0.001          159.85186     -2211.0661      10.558525      2405.8582      10246.592    
ec     7500  7.5            0.001          152.10251     -2210.5541      10.046665      2384.4491      10246.592    
ec     7600  7.6            0.001          151.3443      -2210.5029      9.9965835      2475.9179      10246.592    
ec     7700  7.7            0.001          153.65226     -2210.6557      10.149029      2500.2273      10246.592    
ec     7800  7.8            0.001          145.00496     -2210.0845      9.577858       2493.3475      10246.592    
ec     7900  7.9            0.001          156.8605      -2210.8681      10.36094       2527.3234      10246.592    
ec     8000  8              0.001          138.8536      -2209.6778      9.1715486      2430.2952      10246.592    
ec     8100  8.1            0.001          147.82825     -2210.2715      9.7643419      2327.5838      10246.592    
ec     8200  8.2            0.001          145.53547     -2210.12        9.6128994      2252.412       10246.592    
ec     8300  8.3            0.001          140.50657     -2209.7876      9.2807308      2203.5671      10246.592    
ec     8400  8.4            0.001          141.85347     -2209.8773      9.3696958      2253.3395      10246.592    
ec     8500  8.5            0.001          152.67379     -2210.5914      10.084399      2462.6576      10246.592    
ec     8600  8.6            0.001          142.33764     -2209.9079      9.4016767      2375.7755      10246.592    
ec     8700  8.7            0.001          152.29947     -2210.5673      10.059674      2401.9475      10246.592    
ec     8800  8.8            0.001          147.87623     -2210.2742      9.767511       2403.0289      10246.592    
ec     8900  8.9            0.001          153.49879     -2210.6459      10.138892      2552.7716      10246.592    
ec     9000  9              0.001          163.9792      -2211.3393      10.831143      2434.8145      10246.592    
ec     9100  9.1            0.001          159.44224     -2211.0387      10.531468      2501.2367      10246.592    
ec     9200  9.2            0.001          138.98746     -2209.6864      9.1803903      2392.7262      10246.592    
ec     9300  9.3            0.001          130.95293     -2209.1552      8.6496946      2306.7427      10246.592    
ec     9400  9.4            0.001          139.8742      -2209.7448      9.2389617      2431.3642      10246.592    
ec     9500  9.5            0.001          165.00278     -2211.4074      10.898753      2373.1755      10246.592    
ec     9600  9.6            0.001          144.12587     -2210.0264      9.5197928      2393.858       10246.592    
ec     9700  9.7            0.001          143.31345     -2209.9729      9.4661308      2391.0779      10246.592    
ec     9800  9.8            0.001          146.063       -2210.1553      9.6477434      2312.7465      10246.592    
ec     9900  9.9            0.001          137.00663     -2209.5552      9.0495527      2320.9289      10246.592    
ec    10000  10             0.001          166.14634     -2211.4834      10.974287      2412.2264      10246.592    
ec    10100  10.1           0.001          150.05478     -2210.4182      9.9114086      2417.6401      10246.592    
ec    10200  10.2           0.001          142.40876     -2209.9123      9.4063739      2405.0316      10246.592    
ec    10300  10.3           0.001          143.08334     -2209.9581      9.4509315      2320.6933      10246.592    
ec    10400  10.4           0.001          157.11692     -2210.8852      10.377877      2402.5081      10246.592    
ec    10500  10.5           0.001          152.43095     -2210.5757      10.068359      2428.896       10246.592    
ec    10600  10.6           0.001          161.06513     -2211.1472      10.638663      2423.7416      10246.592    
ec    10700  10.7           0.001          152.70456     -2210.5919      10.086432      2582.8333      10246.592    
ec    10800  10.8           0.001          148.85607     -2210.3391      9.8322312      2455.7156      10246.592    
ec    10900  10.9           0.001          167.0283      -2211.5407      11.032542      2479.5453      10246.592    
ec    11000  11             0.001          146.03326     -2210.1512      9.6457789      2578.3794      10246.592    
ec    11100  11.1           0.001          143.20916     -2209.9653      9.4592417      2453.7354      10246.592    
ec    11200  11.2           0.001          155.13203     -2210.7551      10.246771      2290.3049      10246.592    
ec    11300  11.3           0.001          154.34685     -2210.7034      10.194908      2221.1599      10246.592    
ec    11400  11.4           0.001          138.43977     -2209.6511      9.1442142      2187.004       10246.592    
ec    11500  11.5           0.001          138.7546      -2209.6711      9.1650098      2358.3663      10246.592    
ec    11600  11.6           0.001          156.55205     -2210.8487      10.340566      2426.9106      10246.592    
ec    11700  11.7           0.001          161.85        -2211.1979      10.690506      2512.4971      10246.592    
ec    11800  11.8           0.001          158.44086     -2210.9731      10.465325      2397.4783      10246.592    
ec    11900  11.9           0.001          136.51432     -2209.5223      9.0170347      2437.3617      10246.592    
ec    12000  12             0.001          148.66051     -2210.3265      9.8193141      2372.7407      10246.592    
ec    12100  12.1           0.001          148.33847     -2210.3049      9.7980427      2412.9807      10246.592    
ec    12200  12.2           0.001          157.44341     -2210.9073      10.399442      2424.7518      10246.592    
ec    12300  12.3           0.001          156.55748     -2210.8491      10.340924      2360.0366      10246.592    
ec    12400  12.4           0.001          139.63401     -2209.7302      9.2230963      2361.9112      10246.592    
ec    12500  12.5           0.001          139.03329     -2209.689       9.1834177      2432.1166      10246.592    
ec    12600  12.6           0.001          156.40648     -2210.8389      10.330951      2433.605       10246.592    
ec    12700  12.7           0.001          153.5118      -2210.6468      10.139751      2490.6027      10246.592    
ec    12800  12.8           0.001          147.64499     -2210.2589      9.7522371      2433.829       10246.592    
ec    12900  12.9           0.001          141.02232     -2209.8215      9.3147971      2318.7852      10246.592    
ec    13000  13             0.001          154.61344     -2210.7206      10.212516      2317.3889      10246.592    
ec    13100  13.1           0.001          156.79699     -2210.8652      10.356745      2256.2668      10246.592    
ec    13200  13.2           0.001          147.62549     -2210.2575      9.750949       2377.1422      10246.592    
ec    13300  13.3           0.001          138.40084     -2209.6478      9.1416429      2382.8195      10246.592    
ec    13400  13.4           0.001          143.7362      -2210.0013      9.4940543      2260.9926      10246.592    
ec    13500  13.5           0.001          147.66813     -2210.2602      9.7537653      2414.5562      10246.592    
ec    13600  13.6           0.001          165.04054     -2211.4092      10.901247      2492.4809      10246.592    
ec    13700  13.7           0.001          148.71815     -2210.3294      9.8231212      2491.5006      10246.592    
ec    13800  13.8           0.001          151.2988      -2210.5004      9.9935782      2519.6049      10246.592    
ec    13900  13.9           0.001          155.47725     -2210.7769      10.269573      2426.4109      10246.592    
ec    14000  14             0.001          147.51532     -2210.2502      9.7436721      2412.4893      10246.592    
ec    14100  14.1           0.001          155.02218     -2210.7479      10.239515      2380.9848      10246.592    
ec    14200  14.2           0.001          152.74293     -2210.5963      10.088966      2395.0521      10246.592    
ec    14300  14.3           0.001          130.88656     -2209.1496      8.6453106      2429.3837      10246.592    
ec    14400  14.4           0.001          149.69503     -2210.3949      9.8876463      2342.7874      10246.592    
ec    14500  14.5           0.001          158.12777     -2210.9524      10.444645      2363.5428      10246.592    
ec    14600  14.6           0.001          151.29978     -2210.501       9.993643       2365.1166      10246.592    
ec    14700  14.7           0.001          151.25786     -2210.4977      9.9908745      2437.917       10246.592    
ec    14800  14.8           0.001          169.47312     -2211.7022      11.194028      2482.8759      10246.592    
ec    14900  14.9           0.001          149.93495     -2210.4101      9.9034935      2457.8725      10246.592    
ec    15000  15             0.001          137.08809     -2209.5598      9.0549338      2424.2348      10246.592    
ec    15100  15.1           0.001          147.05872     -2210.2198      9.7135128      2381.1479      10246.592    
ec    15200  15.2           0.001          150.28412     -2210.4353      9.9265567      2281.6044      10246.592    
ec    15300  15.3           0.001          153.17917     -2210.6249      10.11778       2388.0946      10246.592    
ec    15400  15.4           0.001          148.46605     -2210.3132      9.8064698      2449.5988      10246.592    
ec    15500  15.5           0.001          142.79793     -2209.938       9.4320798      2481.8603      10246.592    
ec    15600  15.6           0.001          150.61209     -2210.4561      9.9482197      2371.494       10246.592    
ec    15700  15.7           0.001          149.3144      -2210.3696      9.8625051      2391.1305      10246.592    
ec    15800  15.8           0.001          149.81263     -2210.402       9.895414       2422.2352      10246.592    
ec    15900  15.9           0.001          144.5434      -2210.055       9.5473708      2288.4729      10246.592    
ec    16000  16             0.001          134.27866     -2209.3749      8.8693652      2337.5078      10246.592    
ec    16100  16.1           0.001          138.46417     -2209.6525      9.145826       2251.8798      10246.592    
ec    16200  16.2           0.001          153.48687     -2210.6458      10.138105      2280.2593      10246.592    
ec    16300  16.3           0.001          158.0032      -2210.9442      10.436417      2389.0151      10246.592    
ec    16400  16.4           0.001          157.84362     -2210.9333      10.425876      2451.3612      10246.592    
ec    16500  16.5           0.001          143.67943     -2209.9965      9.490304       2408.7157      10246.592    
ec    16600  16.6           0.001          158.00402     -2210.9434      10.436471      2472.2999      10246.592    
ec    16700  16.7           0.001          156.34292     -2210.8347      10.326752      2369.2912      10246.592    
ec    16800  16.8           0.001          141.3331      -2209.8404      9.3353248      2530.4337      10246.592    
ec    16900  16.9           0.001          150.26739     -2210.4326      9.9254515      2400.6184      10246.592    
ec    17000  17             0.001          152.24035     -2210.5639      10.05577       2317.8803      10246.592    
ec    17100  17.1           0.001          150.14043     -2210.4242      9.9170661      2338.5246      10246.592    
ec    17200  17.2           0.001          143.19917     -2209.9656      9.4585821      2278.5481      10246.592    
ec    17300  17.3           0.001          147.4771      -2210.2483      9.7411475      2356.5737      10246.592    
ec    17400  17.4           0.001          149.73984     -2210.3975      9.8906062      2418.4327      10246.592    
ec    17500  17.5           0.001          143.25228     -2209.9684      9.4620901      2352.7932      10246.592    
ec    17600  17.6           0.001          149.20912     -2210.3623      9.8555507      2371.4968      10246.592    
ec    17700  17.7           0.001          154.47709     -2210.7112      10.20351       2343.7892      10246.592    
ec    17800  17.8           0.001          149.43679     -2210.3779      9.8705889      2304.5564      10246.592    
ec    17900  17.9           0.001          148.76873     -2210.3332      9.8264626      2449.7766      10246.592    
ec    18000  18             0.001          167.82229     -2211.5928      11.084987      2519.7091      10246.592    
ec    18100  18.1           0.001          165.34278     -2211.4295      10.92121       2465.9455      10246.592    
ec    18200  18.2           0.001          148.60457     -2210.3217      9.8156195      2468.2103      10246.592    
ec    18300  18.3           0.001          149.59006     -2210.3868      9.8807128      2451.3206      10246.592    
ec    18400  18.4           0.001          156.51127     -2210.8461      10.337872      2382.5043      10246.592    
ec    18500  18.5           0.001          154.55886     -2210.7166      10.208912      2375.2961      10246.592    
ec    18600  18.6           0.001          147.90588     -2210.2751      9.7694697      2493.6754      10246.592    
ec    18700  18.7           0.001          141.63516     -2209.8622      9.3552764      2338.5857      10246.592    
ec    18800  18.8           0.001          153.22974     -2210.6294      10.121121      2284.0353      10246.592    
ec    18900  18.9           0.001          157.71937     -2210.9258      10.41767       2342.8962      10246.592    
ec    19000  19             0.001          132.40762     -2209.2512      8.7457796      2343.717       10246.592    
ec    19100  19.1           0.001          142.06216     -2209.8901      9.3834803      2346.4176      10246.592    
ec    19200  19.2           0.001          145.38443     -2210.1104      9.6029231      2319.4235      10246.592    
ec    19300  19.3           0.001          143.33538     -2209.9746      9.467579       2317.1027      10246.592    
ec    19400  19.4           0.001          147.68399     -2210.2611      9.7548129      2401.5254      10246.592    
ec    19500  19.5           0.001          161.09934     -2211.1488      10.640923      2469.3364      10246.592    
ec    19600  19.6           0.001          156.43845     -2210.8404      10.333062      2464.3865      10246.592    
ec    19700  19.7           0.001          152.0099      -2210.5481      10.040548      2358.3558      10246.592    
ec    19800  19.8           0.001          143.94294     -2210.0139      9.5077095      2409.806       10246.592    
ec    19900  19.9           0.001          148.74467     -2210.3309      9.8248728      2440.123       10246.592    
ec    20000  20             0.001          153.51218     -2210.647       10.139777      2374.2664      10246.592    
ec    20100  20.1           0.001          151.05158     -2210.4842      9.9772488      2405.4055      10246.592    
ec    20200  20.2           0.001          158.79028     -2210.9957      10.488405      2443.361       10246.592    
ec    20300  20.3           0.001          140.35098     -2209.7775      9.2704539      2235.8906      10246.592    
ec    20400  20.4           0.001          144.89808     -2210.0768      9.5707984      2423.2943      10246.592    
ec    20500  20.5           0.001          143.23489     -2209.9681      9.4609413      2285.9352      10246.592    
ec    20600  20.6           0.001          146.31134     -2210.1713      9.6641468      2349.3322      10246.592    
ec    20700  20.7           0.001          140.21457     -2209.7673      9.2614435      2391.8991      10246.592    
ec    20800  20.8           0.001          148.67767     -2210.3278      9.8204473      2316.5393      10246.592    
ec    20900  20.9           0.001          150.86788     -2210.4728      9.9651156      2343.6891      10246.592    
ec    21000  21             0.001          144.63152     -2210.0597      9.5531915      2385.58        10246.592    
ec    21100  21.1           0.001          158.20963     -2210.9568      10.450052      2511.9041      10246.592    
ec    21200  21.2           0.001          150.63053     -2210.4557      9.9494381      2509.9052      10246.592    
ec    21300  21.3           0.001          171.06917     -2211.8085      11.299449      2394.6654      10246.592    
ec    21400  21.4           0.001          148.25257     -2210.2995      9.792369       2358.9369      10246.592    
ec    21500  21.5           0.001          140.74962     -2209.8021      9.2967845      2412.086       10246.592    
ec    21600  21.6           0.001          142.53671     -2209.9205      9.4148257      2388.2053      10246.592    
ec    21700  21.7           0.001          159.18299     -2211.0218      10.514344      2451.9431      10246.592    
ec    21800  21.8           0.001          161.31319     -2211.1628      10.655048      2426.2524      10246.592    
ec    21900  21.9           0.001          149.27645     -2210.3666      9.8599985      2399.4103      10246.592    
ec    22000  22             0.001          153.26039     -2210.6305      10.123145      2398.2852      10246.592    
ec    22100  22.1           0.001          161.22873     -2211.158       10.649469      2383.9674      10246.592    
ec    22200  22.2           0.001          141.87414     -2209.8768      9.3710616      2407.7335      10246.592    
ec    22300  22.3           0.001          131.01629     -2209.1598      8.6538792      2304.5202      10246.592    
ec    22400  22.4           0.001          144.54718     -2210.0547      9.5476207      2345.3403      10246.592    
ec    22500  22.5           0.001          142.65694     -2209.93        9.4227668      2288.0677      10246.592    
ec    22600  22.6           0.001          153.06139     -2210.6174      10.110001      2432.2879      10246.592    
ec    22700  22.7           0.001          159.75947     -2211.0589      10.552422      2564.9716      10246.592    
ec    22800  22.8           0.001          145.22236     -2210.0988      9.5922179      2421.5693      10246.592    
ec    22900  22.9           0.001          156.7216      -2210.8598      10.351765      2344.637       10246.592    
ec    23000  23             0.001          150.94711     -2210.4772      9.9703488      2362.0942      10246.592    
ec    23100  23.1           0.001          144.3431      -2210.0405      9.5341408      2345.0637      10246.592    
ec    23200  23.2           0.001          147.25563     -2210.2333      9.7265189      2404.4914      10246.592    
ec    23300  23.3           0.001          152.05483     -2210.5508      10.043516      2407.7268      10246.592    
ec    23400  23.4           0.001          144.82091     -2210.073       9.5657013      2309.5948      10246.592    
ec    23500  23.5           0.001          149.81192     -2210.4024      9.8953669      2344.7346      10246.592    
ec    23600  23.6           0.001          148.35567     -2210.3064      9.7991787      2346.7182      10246.592    
ec    23700  23.7           0.001          154.19354     -2210.6923      10.184782      2410.6879      10246.592    
ec    23800  23.8           0.001          158.18537     -2210.9566      10.44845       2366.5701      10246.592    
ec    23900  23.9           0.001          145.42449     -2210.1118      9.6055691      2408.2585      10246.592    
ec    24000  24             0.001          145.18334     -2210.0951      9.5896407      2492.9561      10246.592    
ec    24100  24.1           0.001          145.11174     -2210.0926      9.5849112      2296.6915      10246.592    
ec    24200  24.2           0.001          148.67124     -2210.3273      9.8200232      2428.1578      10246.592    
ec    24300  24.3           0.001          150.84635     -2210.4707      9.9636929      2426.0338      10246.592    
ec    24400  24.4           0.001          144.4178      -2210.0456      9.5390749      2399.6458      10246.592    
ec    24500  24.5           0.001          150.5628      -2210.4521      9.944964       2429.7183      10246.592    
ec    24600  24.6           0.001          160.98209     -2211.1415      10.633178      2414.6083      10246.592    
ec    24700  24.7           0.001          148.40758     -2210.3094      9.8026076      2426.6134      10246.592    
ec    24800  24.8           0.001          153.13669     -2210.6213      10.114974      2481.0154      10246.592    
ec    24900  24.9           0.001          167.4601      -2211.5697      11.061064      2444.1251      10246.592    
ec    25000  25             0.001          137.78752     -2209.6072      9.1011323      2357.6624      10246.592    
ec    25100  25.1           0.001          150.70452     -2210.4617      9.9543249      2397.2512      10246.592    
ec    25200  25.2           0.001          155.22348     -2210.7606      10.252811      2386.9598      10246.592    
ec    25300  25.3           0.001          149.21007     -2210.3623      9.8556137      2399.8382      10246.592    
ec    25400  25.4           0.001          155.78415     -2210.7984      10.289845      2342.4713      10246.592    
ec    25500  25.5           0.001          147.09719     -2210.2222      9.7160542      2475.5779      10246.592    
ec    25600  25.6           0.001          131.3628      -2209.1818      8.6767671      2414.6215      10246.592    
ec    25700  25.7           0.001          167.41949     -2211.5666      11.058381      2495.7474      10246.592    
ec    25800  25.8           0.001          164.7697      -2211.3911      10.883357      2542.9656      10246.592    
ec    25900  25.9           0.001          146.82999     -2210.2052      9.6984047      2465.6538      10246.592    
ec    26000  26             0.001          151.96488     -2210.5444      10.037574      2445.0941      10246.592    
ec    26100  26.1           0.001          133.82521     -2209.3459      8.8394138      2310.8376      10246.592    
ec    26200  26.2           0.001          153.89215     -2210.6732      10.164874      2326.1491      10246.592    
ec    26300  26.3           0.001          142.60559     -2209.9263      9.4193748      2351.5727      10246.592    
ec    26400  26.4           0.001          137.56654     -2209.5926      9.0865359      2354.71        10246.592    
ec    26500  26.5           0.001          149.36894     -2210.3728      9.8661071      2442.3948      10246.592    
ec    26600  26.6           0.001          158.3573      -2210.9678      10.459806      2380.8461      10246.592    
ec    26700  26.7           0.001          147.07941     -2210.2219      9.7148793      2375.9343      10246.592    
ec    26800  26.8           0.001          149.9794      -2210.4128      9.9064293      2446.7524      10246.592    
ec    26900  26.9           0.001          147.33007     -2210.2389      9.7314361      2347.1519      10246.592    
ec    27000  27             0.001          147.22916     -2210.2321      9.7247706      2331.9273      10246.592    
ec    27100  27.1           0.001          152.62814     -2210.588       10.081384      2490.4507      10246.592    
ec    27200  27.2           0.001          138.01994     -2209.623       9.1164841      2391.8387      10246.592    
ec    27300  27.3           0.001          140.20176     -2209.7661      9.2605977      2516.134       10246.592    
ec    27400  27.4           0.001          153.01104     -2210.6143      10.106675      2413.8738      10246.592    
ec    27500  27.5           0.001          161.63879     -2211.1849      10.676555      2442.8672      10246.592    
ec    27600  27.6           0.001          154.90973     -2210.739       10.232088      2489.4233      10246.592    
ec    27700  27.7           0.001          151.36252     -2210.5049      9.9977875      2450.1389      10246.592    
ec    27800  27.8           0.001          151.51143     -2210.5151      10.007623      2377.2151      10246.592    
ec    27900  27.9           0.001          142.30312     -2209.9063      9.3993963      2304.9735      10246.592    
ec    28000  28             0.001          148.71102     -2210.33        9.8226505      2327.3589      10246.592    
ec    28100  28.1           0.001          136.59323     -2209.528       9.0222469      2382.3526      10246.592    
ec    28200  28.2           0.001          144.77892     -2210.0698      9.5629278      2362.0028      10246.592    
ec    28300  28.3           0.001          149.8492      -2210.4051      9.8978293      2315.7551      10246.592    
ec    28400  28.4           0.001          164.09529     -2211.3469      10.838812      2408.1525      10246.592    
ec    28500  28.5           0.001          150.22571     -2210.429       9.9226984      2466.9594      10246.592    
ec    28600  28.6           0.001          148.38472     -2210.3077      9.8010978      2482.9132      10246.592    
ec    28700  28.7           0.001          160.79248     -2211.1286      10.620654      2472.0644      10246.592    
ec    28800  28.8           0.001          146.98468     -2210.2152      9.7086222      2435.3587      10246.592    
ec    28900  28.9           0.001          152.95934     -2210.6101      10.103261      2484.3056      10246.592    
ec    29000  29             0.001          162.3643      -2211.2325      10.724476      2506.9103      10246.592    
ec    29100  29.1           0.001          143.12524     -2209.9598      9.4536988      2520.9509      10246.592    
ec    29200  29.2           0.001          152.45339     -2210.5779      10.069841      2313.6278      10246.592    
ec    29300  29.3           0.001          160.66202     -2211.1203      10.612037      2411.0183      10246.592    
ec    29400  29.4           0.001          142.26065     -2209.9038      9.3965911      2267.0378      10246.592    
ec    29500  29.5           0.001          152.52696     -2210.5826      10.074701      2330.9879      10246.592    
ec    29600  29.6           0.001          148.83776     -2210.3372      9.8310218      2485.0712      10246.592    
ec    29700  29.7           0.001          138.42043     -2209.6489      9.1429369      2376.8068      10246.592    
ec    29800  29.8           0.001          155.16966     -2210.7568      10.249256      2412.4718      10246.592    
ec    29900  29.9           0.001          142.82962     -2209.9408      9.4341724      2400.6838      10246.592    
Fix halt condition for fix-id myhalt met on step 30000 with value 30 (../fix_halt.cpp:240)
ec    30000  30             0.001          141.35522     -2209.8441      9.3367856      2303.0192      10246.592    
Loop time of 5.99541 on 2 procs for 30000 steps with 512 atoms

Performance: 432.331 ns/day, 0.056 hours/ns, 5003.829 timesteps/s, 2.562 Matom-step/s
97.2% CPU use with 2 MPI tasks x no OpenMP threads

MPI task timing breakdown:
Section |  min time  |  avg time  |  max time  |%varavg| %total
---------------------------------------------------------------
Pair    | 5.3472     | 5.3594     | 5.3716     |   0.5 | 89.39
Neigh   | 0          | 0          | 0          |   0.0 |  0.00
Comm    | 0.51065    | 0.5222     | 0.53375    |   1.6 |  8.71
Output  | 0.0026453  | 0.00473    | 0.0068148  |   3.0 |  0.08
Modify  | 0.050229   | 0.05037    | 0.050512   |   0.1 |  0.84
Other   |            | 0.0587     |            |       |  0.98

Nlocal:            256 ave         256 max         256 min
Histogram: 2 0 0 0 0 0 0 0 0 0
Nghost:           1081 ave        1081 max        1081 min
Histogram: 2 0 0 0 0 0 0 0 0 0
Neighs:              0 ave           0 max           0 min
Histogram: 2 0 0 0 0 0 0 0 0 0
FullNghs:         8704 ave        8704 max        8704 min
Histogram: 2 0 0 0 0 0 0 0 0 0

Total # of neighbors = 17408
Ave neighs/atom = 34
Neighbor list builds = 0
Dangerous builds = 0

unfix myhalt

fix NPT all npt temp 300 300 ${tau_T} iso 0.0 0.0 1.0
fix NPT all npt temp 300 300 1.0 iso 0.0 0.0 1.0



fix myhalt all halt 100 v_t >= 60.0 error continue

run 10000000
WARNING: One or more atoms are time integrated more than once (../modify.cpp:296)
Per MPI rank memory allocation (min/avg/max) = 3.237 | 3.237 | 3.237 Mbytes
   Step          Time            Dt            Temp          PotEng         KinEng         Press          Volume    
ec    30000  30             0.001          141.35522     -2209.8441      9.3367856      2303.0192      10246.592    
ec    30100  30.1           0.001          206.68755     -2206.1278      13.652113     -1918.2772      10300.874    
ec    30200  30.2           0.001          314.88877     -2200.36        20.799012      853.37771      10290.585    
ec    30300  30.3           0.001          492.88932     -2191.5238      32.556293      1128.5263      10313.431    
ec    30400  30.4           0.001          712.29245     -2173.0367      47.048294     -2199.3696      10389.362    
ec    30500  30.5           0.001          1045.9113     -2144.694       69.084462      2360.6266      10409.361    
ec    30600  30.6           0.001          1648.5625     -2109.0864      108.89074     -1213.6037      10549.502    
ec    30700  30.7           0.001          2369.3393     -2045.3917      156.49944      455.27849      10686.6      
ec    30800  30.8           0.001          3310.5819     -1961.7166      218.67034      2592.202       10878.461    
ec    30900  30.9           0.001          4077.4459     -1845.1339      269.32319      6431.2204      11130.338    
ec    31000  31             0.001          4703.4074     -1741.446       310.66916     -2394.2392      11532.987    
ec    31100  31.1           0.001          5056.7937     -1675.1792      334.011        5111.0585      11302.68     
ec    31200  31.2           0.001          5177.8292     -1631.4955      342.00563      1517.1461      11413.71     
ec    31300  31.3           0.001          5459.0957     -1609.0097      360.58383      18120.091      11331.986    
ec    31400  31.4           0.001          5549.8613     -1583.9835      366.57907      12736.593      11615.565    
ec    31500  31.5           0.001          5494.5579     -1550.2068      362.92617      651.94817      11790.68     
ec    31600  31.6           0.001          5683.3281     -1538.5896      375.39481      6449.2847      12179.033    
ec    31700  31.7           0.001          5834.655      -1528.2414      385.39025     -2126.3139      12291.896    
ec    31800  31.8           0.001          6023.6526     -1526.4775      397.8739       6936.1638      12223.628    
ec    31900  31.9           0.001          6090.6133     -1516.3439      402.29679     -7957.3173      12441.696    
ec    32000  32             0.001          6001.5352     -1503.005       396.41301      2612.3307      12593.188    
ec    32100  32.1           0.001          6220.0037     -1516.1094      410.84327      8472.7138      12488.961    
ec    32200  32.2           0.001          6352.5399     -1524.2431      419.59755     -4428.1226      12416.019    
ec    32300  32.3           0.001          6197.9933     -1514.1836      409.38945      14419.067      12385.537    
ec    32400  32.4           0.001          6271.4958     -1524.7968      414.24442      20003.98       12408.024    
ec    32500  32.5           0.001          6075.6886     -1515.2642      401.31098     -2969.4887      12563.145    
ec    32600  32.6           0.001          5734.7522     -1497.9514      378.79148     -9911.0409      12928.663    
ec    32700  32.7           0.001          5590.9567     -1499.6349      369.2935      -15068.697      12549.814    
ec    32800  32.8           0.001          5893.3834     -1522.5327      389.26937      1093.0428      12592.703    
ec    32900  32.9           0.001          6036.7535     -1539.145       398.73925     -393.16162      12484.235    
ec    33000  33             0.001          5979.2102     -1539.6205      394.9384       2204.1533      12344.623    
ec    33100  33.1           0.001          5411.1693     -1505.0076      357.4182       342.17534      12498.569    
ec    33200  33.2           0.001          5562.1825     -1522.8519      367.39291      10920.037      12584.008    
ec    33300  33.3           0.001          5962.1533     -1557.7472      393.81175     -3345.3738      12101.158    
ec    33400  33.4           0.001          6001.7056     -1565.3546      396.42426     -5263.2174      12053.767    
ec    33500  33.5           0.001          5910.6355     -1568.2565      390.4089      -1293.6235      12005.492    
ec    33600  33.6           0.001          5647.3572     -1560.2265      373.01886     -2669.8328      11914.817    
ec    33700  33.7           0.001          5692.7641     -1573.9162      376.01808     -9624.8462      12054.878    
ec    33800  33.8           0.001          5348.1071     -1561.6429      353.25282     -8701.3876      12055.897    
ec    33900  33.9           0.001          5392.5595     -1576.6821      356.18899     -19933.287      11758.957    
ec    34000  34             0.001          5611.2229     -1599.5399      370.63213     -183.69756      11766.131    
ec    34100  34.1           0.001          5183.7387     -1579.6016      342.39597     -1178.3514      11910.909    
ec    34200  34.2           0.001          5390.6875     -1604.9234      356.06534      10534.788      11450.835    
ec    34300  34.3           0.001          5169.7065     -1599.6131      341.46911      4657.0476      11387.087    
ec    34400  34.4           0.001          5212.8328     -1613.8555      344.31769      7222.269       11512.998    
ec    34500  34.5           0.001          5186.7898     -1619.6065      342.5975       596.80668      11452.332    
ec    34600  34.6           0.001          5212.9676     -1632.6998      344.32659      10256.572      11425.357    
ec    34700  34.7           0.001          4792.2607     -1610.5704      316.53809      8457.926       11373.858    
ec    34800  34.8           0.001          4787.0323     -1613.0933      316.19274     -18304.161      11463.142    
ec    34900  34.9           0.001          4936.8369     -1624.8704      326.08763     -4588.8024      11287.318    
ec    35000  35             0.001          4955.1093     -1632.2915      327.29455      16419.488      11124.687    
ec    35100  35.1           0.001          4872.3904     -1631.9714      321.83081     -19286.699      11517.359    
ec    35200  35.2           0.001          4790.0751     -1627.2263      316.39372     -20229.452      11504.238    
ec    35300  35.3           0.001          5103.9654     -1648.5376      337.12678     -5177.7233      11099.056    
ec    35400  35.4           0.001          5025.9673     -1652.8037      331.97486      6235.4502      11096.017    
ec    35500  35.5           0.001          4871.281      -1649.3534      321.75753     -700.54708      11266.904    
ec    35600  35.6           0.001          5016.9908     -1667.9052      331.38195      2338.0801      11162.091    
ec    35700  35.7           0.001          4587.6061     -1651.6338      303.02025      17738.279      10913.073    
ec    35800  35.8           0.001          4333.443      -1641.7173      286.23229     -13236.456      11208.956    
ec    35900  35.9           0.001          4914.1704     -1682.1353      324.59046     -323.70832      10948.459    
ec    36000  36             0.001          4453.0425     -1653.4063      294.13207      4505.3304      11041.479    
ec    36100  36.1           0.001          4595.4463     -1668.178       303.53811     -34027.143      11104.185    
ec    36200  36.2           0.001          4460.1247     -1660.2637      294.59986     -2326.8955      11086.838    
ec    36300  36.3           0.001          4607.2597     -1674.5942      304.31841     -2907.7122      11177.814    
ec    36400  36.4           0.001          4348.2429     -1659.1937      287.20985     -18529.764      11275.113    
ec    36500  36.5           0.001          4617.9322     -1681.2559      305.02336      7404.9411      10912.65     
ec    36600  36.6           0.001          4511.6968     -1680.0183      298.0063      -19256.291      11107.658    
ec    36700  36.7           0.001          4459.322      -1681.3698      294.54684      199.87439      10968.037    
ec    36800  36.8           0.001          4519.9314     -1691.9301      298.55021      8216.8423      10716.338    
ec    36900  36.9           0.001          4482.8344     -1691.8624      296.09988     -3085.2984      11012.512    
ec    37000  37             0.001          4215.5068     -1678.8433      278.44238      8014.9313      10954.572    
ec    37100  37.1           0.001          4334.22       -1692.1081      286.28361      6280.7758      10854.565    
ec    37200  37.2           0.001          4270.2214     -1693.238       282.05638     -14969.094      10905.697    
ec    37300  37.3           0.001          4133.4162     -1684.7608      273.02013     -6853.7662      10829.319    
ec    37400  37.4           0.001          4544.9954     -1709.7116      300.20574     -4087.6924      10745.804    
ec    37500  37.5           0.001          4302.0941     -1698.3239      284.16163     -19156.193      10970.705    
ec    37600  37.6           0.001          4107.7255     -1688.872       271.32322      2423.256       10790.404    
ec    37700  37.7           0.001          4351.5308     -1707.5905      287.42703      4141.886       10688.448    
ec    37800  37.8           0.001          4438.5168     -1712.5094      293.17262     -11444.784      10787.495    
ec    37900  37.9           0.001          4229.0086     -1706.2354      279.3342       2239.909       10675.461    
ec    38000  38             0.001          4125.5937     -1702.3826      272.50345     -15291.321      10725.394    
ec    38100  38.1           0.001          4343.9516     -1721.8122      286.92641     -9701.7134      10592.794    
ec    38200  38.2           0.001          4162.248      -1711.5671      274.92453     -11928.043      10738.128    
ec    38300  38.3           0.001          4136.6065     -1711.3063      273.23086     -6454.8423      10621.708    
ec    38400  38.4           0.001          4094.2421     -1710.2905      270.43261      2542.0035      10567.452    
ec    38500  38.5           0.001          4193.4844     -1720.1067      276.98776     -3148.0801      10665.03     
ec    38600  38.6           0.001          3975.9188     -1709.2656      262.61713     -703.98007      10642.056    
ec    38700  38.7           0.001          3967.809      -1711.2762      262.08146      22238.939      10585.684    
ec    38800  38.8           0.001          4059.9446     -1716.8929      268.16719     -3690.6116      10647.346    
ec    38900  38.9           0.001          3843.449      -1705.1142      253.86724      5020.0841      10698.582    
ec    39000  39             0.001          4035.5383     -1720.4275      266.55511      4011.7774      10635.753    
ec    39100  39.1           0.001          3802.9409     -1707.1986      251.1916      -4952.5376      10703.509    
ec    39200  39.2           0.001          3893.6747     -1715.2718      257.18474     -2354.0545      10667.015    
ec    39300  39.3           0.001          3938.7109     -1718.1602      260.15947      2995.2484      10631.229    
ec    39400  39.4           0.001          4021.1569     -1726.9853      265.60519     -15479.996      10732.465    
ec    39500  39.5           0.001          3831.1095     -1718.6721      253.05219      5200.2511      10503.174    
ec    39600  39.6           0.001          3965.6723     -1729.5376      261.94032      16219.994      10523.979    
ec    39700  39.7           0.001          4070.9394     -1737.8702      268.89342      12478.491      10529.164    
ec    39800  39.8           0.001          3955.8807     -1732.6178      261.29357      6694.5804      10543.782    
ec    39900  39.9           0.001          3750.9507     -1717.9571      247.75755      3654.9766      10698.043    
ec    40000  40             0.001          3799.8849     -1723.0589      250.98975      1950.8708      10579.837    
ec    40100  40.1           0.001          3749.6995     -1719.3688      247.6749       8095.1913      10597.821    
ec    40200  40.2           0.001          3718.0403     -1721.8237      245.58375     -11263.576      10725.711    
ec    40300  40.3           0.001          3749.0022     -1726.3462      247.62885     -711.62275      10593.418    
ec    40400  40.4           0.001          3768.5355     -1730.6504      248.91906      4881.8211      10527.181    
ec    40500  40.5           0.001          3895.8909     -1742.8524      257.33113      20751.411      10266.25     
ec    40600  40.6           0.001          3796.1833     -1738.4784      250.74525     -9950.2897      10603.523    
ec    40700  40.7           0.001          3927.7598     -1749.2718      259.43613     -15.244984      10512.066    
ec    40800  40.8           0.001          3857.3755     -1744.5624      254.78711      5757.8108      10352.884    
ec    40900  40.9           0.001          3847.3302     -1744.5142      254.1236      -688.8475       10692.572    
ec    41000  41             0.001          3766.9996     -1740.6023      248.81761      10541.72       10515.457    
ec    41100  41.1           0.001          3845.0822     -1748.3081      253.97511      1730.506       10557.387    
ec    41200  41.2           0.001          3768.2064     -1745.8531      248.89732     -7613.0166      10608.47     
ec    41300  41.3           0.001          3691.7193     -1741.5719      243.8452       10044.852      10443.665    
ec    41400  41.4           0.001          3707.5329     -1745.1739      244.88972      1734.2378      10451.777    
ec    41500  41.5           0.001          3695.9566     -1745.1032      244.12509     -3237.1837      10363.56     
ec    41600  41.6           0.001          3630.293      -1740.2668      239.78788     -1759.8923      10583.618    
ec    41700  41.7           0.001          3753.2187     -1751.5008      247.90735      3191.6556      10459.814    
ec    41800  41.8           0.001          3681.8756     -1745.815       243.19501     -6838.7305      10475.525    
ec    41900  41.9           0.001          3894.0954     -1761.1811      257.21253     -19814.077      10631.335    
ec    42000  42             0.001          3696.1944     -1748.9172      244.14079      822.05368      10391.809    
ec    42100  42.1           0.001          3751.6767     -1754.0369      247.8055      -17997.758      10507.74     
ec    42200  42.2           0.001          3809.8725     -1754.9937      251.64944      15179.469      10334.9      
ec    42300  42.3           0.001          3659.423      -1746.6495      241.71197     -14384.837      10529.629    
ec    42400  42.4           0.001          3676.5924     -1749.1709      242.84604     -8532.2675      10425.605    
ec    42500  42.5           0.001          3518.5845     -1741.5355      232.40931     -11836.505      10504.696    
ec    42600  42.6           0.001          3625.3076     -1750.31        239.45858      14513.669      10305.199    
ec    42700  42.7           0.001          3609.9566     -1750.9235      238.44462      6906.7755      10404.539    
ec    42800  42.8           0.001          3739.4418     -1757.7396      246.99737     -6381.1111      10357.353    
ec    42900  42.9           0.001          3805.1912     -1768.0762      251.34024     -8691.0984      10380.375    
ec    43000  43             0.001          3603.5734     -1758.4187      238.02299     -8967.7799      10348.039    
ec    43100  43.1           0.001          3818.0912     -1776.179       252.19231     -11844.738      10295.75     
ec    43200  43.2           0.001          3664.8397     -1767.0295      242.06975      4399.174       10316.057    
ec    43300  43.3           0.001          3583.3133     -1763.0626      236.68478      3164.5414      10356.24     
ec    43400  43.4           0.001          3635.926      -1766.5627      240.15994      3063.047       10358.442    
ec    43500  43.5           0.001          3618.2742     -1765.2788      238.99401      13792.082      10339.855    
ec    43600  43.6           0.001          3551.859      -1761.1004      234.60715      10384.667      10390.01     
ec    43700  43.7           0.001          3522.1363     -1756.9777      232.64391     -1814.8397      10502.49     
ec    43800  43.8           0.001          3604.0644     -1762.8222      238.05542     -4424.7011      10411.92     
ec    43900  43.9           0.001          3445.3942     -1751.3223      227.57495     -6328.1099      10551.336    
ec    44000  44             0.001          3539.7621     -1757.3574      233.80813      8401.8893      10363.415    
ec    44100  44.1           0.001          3696.2034     -1771.0778      244.14138      7817.2202      10316.501    
ec    44200  44.2           0.001          3663.2353     -1768.5816      241.96377      81.972743      10308.097    
ec    44300  44.3           0.001          3404.7712     -1754.3632      224.89172      9307.7039      10374.939    
ec    44400  44.4           0.001          3672.5867     -1776.3307      242.58145      4588.1615      10352.269    
ec    44500  44.5           0.001          3386.5032     -1759.8784      223.68508      9057.2864      10389.207    
ec    44600  44.6           0.001          3536.4971     -1769.4555      233.59247      8145.592       10260.713    
ec    44700  44.7           0.001          3531.474      -1770.8111      233.26068     -10274.536      10272.261    
ec    44800  44.8           0.001          3660.8303     -1780.5644      241.80492      18914.451      10174.396    
ec    44900  44.9           0.001          3423.0399     -1761.9375      226.0984      -6056.436       10364.874    
ec    45000  45             0.001          3465.2427     -1763.5479      228.88598      2239.1472      10349.706    
ec    45100  45.1           0.001          3410.1696     -1763.6582      225.2483      -10106.915      10402.009    
ec    45200  45.2           0.001          3336.5691     -1758.9946      220.38685     -11876.661      10431.184    
ec    45300  45.3           0.001          3516.1137     -1771.8866      232.24611     -2578.484       10305.378    
ec    45400  45.4           0.001          3340.563      -1762.3528      220.65064     -10216.573      10357.112    
ec    45500  45.5           0.001          3359.2755     -1766.0887      221.88664     -1942.0821      10413.682    
ec    45600  45.6           0.001          3474.9142     -1773.2289      229.5248       681.13739      10436.296    
ec    45700  45.7           0.001          3378.7404     -1769.5972      223.17234      3918.6867      10315.721    
ec    45800  45.8           0.001          3296.0496     -1765.3296      217.71045      4704.7684      10347.961    
ec    45900  45.9           0.001          3447.182      -1778.5306      227.69304     -7371.362       10273.86     
ec    46000  46             0.001          3424.4118     -1780.969       226.18903      4500.4541      10232.855    
ec    46100  46.1           0.001          3351.5572     -1777.834       221.37684      12649.405      10214.713    
ec    46200  46.2           0.001          3416.7617     -1780.0712      225.68372     -6912.0355      10315.032    
ec    46300  46.3           0.001          3424.4721     -1779.777       226.19301     -11937.928      10304.08     
ec    46400  46.4           0.001          3367.5451     -1776.453       222.43286     -113.83886      10268.539    
ec    46500  46.5           0.001          3378.5636     -1772.7809      223.16066      5487.0547      10359.022    
ec    46600  46.6           0.001          3505.4474     -1779.4631      231.54158      5132.5879      10228.761    
ec    46700  46.7           0.001          3333.1799     -1767.8405      220.16298     -16935.932      10386.511    
ec    46800  46.8           0.001          3474.2589     -1778.8931      229.48152     -19906.075      10364.367    
ec    46900  46.9           0.001          3282.3027     -1768.9539      216.80244      8872.027       10267.468    
ec    47000  47             0.001          3278.6565     -1769.5027      216.5616      -22850.989      10398.237    
ec    47100  47.1           0.001          3384.9787     -1775.7182      223.58439     -8672.5227      10346.738    
ec    47200  47.2           0.001          3512.7264     -1786.0117      232.02237      2807.9817      10241.127    
ec    47300  47.3           0.001          3166.0777     -1763.4808      209.12556      3654.1866      10396.316    
ec    47400  47.4           0.001          3407.639      -1781.1758      225.08115     -2236.5811      10407.458    
ec    47500  47.5           0.001          3417.9036     -1782.8794      225.75915      14516.064      10214.767    
ec    47600  47.6           0.001          3310.0008     -1776.8326      218.63195     -19044.624      10400.393    
ec    47700  47.7           0.001          3172.511      -1770.7863      209.55049     -7129.2076      10396.488    
ec    47800  47.8           0.001          3218.0255     -1774.2423      212.55681      14944.75       10316.764    
ec    47900  47.9           0.001          3309.9109     -1779.3931      218.62602      18556.876      10294.902    
ec    48000  48             0.001          3345.8257     -1781.4607      220.99826      2345.4724      10330.485    
ec    48100  48.1           0.001          3332.2351     -1779.4577      220.10057      7542.2069      10428.084    
ec    48200  48.2           0.001          3258.4681     -1775.3857      215.22812     -3232.8015      10436.171    
ec    48300  48.3           0.001          3412.7639     -1785.5207      225.41965      6297.4238      10275.888    
ec    48400  48.4           0.001          3154.7193     -1767.83        208.37531      2953.2908      10354.689    
ec    48500  48.5           0.001          3371.6908     -1779.6079      222.7067       6073.5392      10279.947    
ec    48600  48.6           0.001          3119.3101     -1764.2375      206.03646      11571.252      10224.743    
ec    48700  48.7           0.001          3316.6944     -1778.3214      219.07408     -1066.6965      10197.219    
ec    48800  48.8           0.001          3219.5085     -1772.2414      212.65476      4826.987       10312.939    
ec    48900  48.9           0.001          3268.9785     -1775.1346      215.92235      8444.3372      10297.922    
ec    49000  49             0.001          3288.9058     -1776.5413      217.23859     -3222.7422      10230.437    
ec    49100  49.1           0.001          3264.2838     -1774.0839      215.61226     -9720.383       10312.208    
ec    49200  49.2           0.001          3345.1315     -1781.1507      220.9524       215.53528      10169.714    
ec    49300  49.3           0.001          3377.626      -1788.1998      223.09873      377.86633      10220.581    
ec    49400  49.4           0.001          3453.3382     -1795.9082      228.09967      9795.9599      10177.163    
ec    49500  49.5           0.001          3303.8371     -1786.1091      218.22483      1734.7624      10253.253    
ec    49600  49.6           0.001          3389.8562     -1793.1876      223.90656      4839.7468      10278.37     
ec    49700  49.7           0.001          3143.2153     -1778.372       207.61545      11920.573      10142.373    
ec    49800  49.8           0.001          3187.7936     -1782.7983      210.55993      2243.1534      10307.259    
ec    49900  49.9           0.001          3318.9793     -1791.2175      219.225       -9495.2891      10152.611    
ec    50000  50             0.001          3099.9577     -1778.3316      204.7582      -10872.347      10278.568    
ec    50100  50.1           0.001          3259.3935     -1787.6313      215.28925     -3745.3191      10287.469    
ec    50200  50.2           0.001          3239.5675     -1787.8765      213.9797      -3796.2697      10215.634    
ec    50300  50.3           0.001          3277.7366     -1788.7851      216.50084     -3406.2021      10309.509    
ec    50400  50.4           0.001          3245.8599     -1788.9605      214.39532      13.279022      10199.453    
ec    50500  50.5           0.001          3260.1577     -1788.8298      215.33972     -4330.9204      10292.068    
ec    50600  50.6           0.001          3303.6645     -1790.6853      218.21343     -19362.167      10264.609    
ec    50700  50.7           0.001          3299.854      -1791.9111      217.96174     -3138.0799      10261.596    
ec    50800  50.8           0.001          3235.9037     -1788.8544      213.7377       4276.7991      10301.564    
ec    50900  50.9           0.001          3297.688      -1793.8369      217.81867     -2645.3424      10322.811    
ec    51000  51             0.001          3219.4485     -1791.658       212.6508      -17077.115      10263.631    
ec    51100  51.1           0.001          3183.3523     -1789.7503      210.26657     -5600.8932      10156.449    
ec    51200  51.2           0.001          3208.6521     -1792.893       211.93767      1917.7849      10182.075    
ec    51300  51.3           0.001          3277.7529     -1797.2869      216.50192      6846.1427      10165.08     
ec    51400  51.4           0.001          3066.6193     -1783.2562      202.55614      10393.102      10281.019    
ec    51500  51.5           0.001          3181.3784     -1793.4229      210.13619     -5191.0727      10193.259    
ec    51600  51.6           0.001          3027.4087     -1783.9958      199.9662       1154.0546      10263.472    
ec    51700  51.7           0.001          3328.0124     -1802.336       219.82165     -7474.5         10187.091    
ec    51800  51.8           0.001          3312.6389     -1800.7614      218.80621     -2652.2978      10073.563    
ec    51900  51.9           0.001          3170.3166     -1794.8448      209.40554     -10781.769      10208.98     
ec    52000  52             0.001          3105.7362     -1791.2436      205.13988     -11919.804      10294.271    
ec    52100  52.1           0.001          3096.2647     -1789.303       204.51427      735.4649       10196.585    
ec    52200  52.2           0.001          3303.7143     -1805.3805      218.21672      11386.732      10166.532    
ec    52300  52.3           0.001          2932.9054     -1782.0646      193.72407      9715.2805      10172.291    
ec    52400  52.4           0.001          3107.2815     -1794.5933      205.24195     -2862.8525      10224.319    
ec    52500  52.5           0.001          3001.8461     -1787.0403      198.27774      7233.8345      10184.142    
ec    52600  52.6           0.001          3117.3986     -1795.616       205.91021     -8969.3127      10226.687    
ec    52700  52.7           0.001          3071.2025     -1794.3818      202.85886      1174.7195      10168.037    
ec    52800  52.8           0.001          3169.2584     -1800.4075      209.33565     -11357.007      10271.575    
ec    52900  52.9           0.001          3177.6799     -1804.0652      209.8919      -6956.162       10223.345    
ec    53000  53             0.001          3187.2134     -1803.1019      210.52161      2857.9733      10156.686    
ec    53100  53.1           0.001          3154.6536     -1798.8866      208.37097     -13531.767      10247.338    
ec    53200  53.2           0.001          3014.6808     -1788.69        199.1255      -9468.3849      10255.624    
ec    53300  53.3           0.001          3253.1529     -1804.9784      214.87704     -5896.0522      10259.17     
ec    53400  53.4           0.001          3206.1245     -1800.4387      211.77072     -17856.979      10281.011    
ec    53500  53.5           0.001          3123.1441     -1796.4149      206.28971      6461.3218      10206.858    
ec    53600  53.6           0.001          3126.9895     -1799.5202      206.5437      -77.330046      10279.835    
ec    53700  53.7           0.001          3091.8664     -1798.1954      204.22376      29.625233      10119.939    
ec    53800  53.8           0.001          3149.3142     -1801.2814      208.01829      9008.7408      10194.56     
ec    53900  53.9           0.001          3164.4065     -1803.079       209.01517      2351.7986      10093.301    
ec    54000  54             0.001          3235.5162     -1809.0493      213.7121      -10490.796      10181.921    
ec    54100  54.1           0.001          2975.7861     -1789.3904      196.55642     -2487.7624      10222.68     
ec    54200  54.2           0.001          3258.9733     -1806.1161      215.26149     -890.57503      10128.67     
ec    54300  54.3           0.001          3100.6912     -1796.5459      204.80665     -2214.9259      10169.942    
ec    54400  54.4           0.001          3142.1097     -1799.8905      207.54242      6930.2912      10166.685    
ec    54500  54.5           0.001          3199.621      -1806.0508      211.34116      7956.1679      10082.338    
ec    54600  54.6           0.001          3084.9548     -1798.235       203.76723      3155.9377      10092.073    
ec    54700  54.7           0.001          3108.4298     -1798.8873      205.3178       12794.771      10112.662    
ec    54800  54.8           0.001          3116.9519     -1802.0168      205.8807      -3881.8772      10130.458    
ec    54900  54.9           0.001          3083.0549     -1804.7283      203.64174      9653.1057      10136.714    
ec    55000  55             0.001          2878.4916     -1791.4176      190.12994      1127.8185      10220.996    
ec    55100  55.1           0.001          3028.3448     -1801.7262      200.02803     -14445.86       10374.95     
ec    55200  55.2           0.001          2975.9464     -1798.8365      196.56702      152.10085      10220.6      
ec    55300  55.3           0.001          3202.6858     -1814.7739      211.54359     -17874.862      10148.165    
ec    55400  55.4           0.001          3126.6142     -1807.7809      206.51891     -17142.462      10184.117    
ec    55500  55.5           0.001          3113.6782     -1809.4107      205.66447     -5903.9589      10112.292    
ec    55600  55.6           0.001          3066.0081     -1809.9444      202.51577      1960.9229      10114.944    
ec    55700  55.7           0.001          3033.6826     -1808.5243      200.38061      8995.4892      10036.266    
ec    55800  55.8           0.001          3054.1324     -1812.9924      201.73135      1992.8737      10098.233    
ec    55900  55.9           0.001          3030.4501     -1812.2575      200.16709     -4233.1487      10065.661    
ec    56000  56             0.001          2909.0568     -1804.4236      192.14883      6386.0313      10086.859    
ec    56100  56.1           0.001          3079.3374     -1816.9398      203.39619      2835.4912      10002.391    
ec    56200  56.2           0.001          3021.3916     -1813.8132      199.56876     -6586.3093      10090.985    
ec    56300  56.3           0.001          2953.363      -1805.9751      195.07534     -9849.3126      10167.584    
ec    56400  56.4           0.001          3022.7679     -1807.9337      199.65967      5321.8941      10082.002    
ec    56500  56.5           0.001          2991.4649     -1806.5172      197.59205     -13543.168      10147.223    
ec    56600  56.6           0.001          2962.0072     -1805.2438      195.64631     -6414.9863      10159.733    
ec    56700  56.7           0.001          3028.3228     -1810.1419      200.02658     -970.26592      10151.962    
ec    56800  56.8           0.001          3052.2379     -1814.833       201.60622      11948.935      10029.272    
ec    56900  56.9           0.001          2955.3453     -1808.179       195.20627      5057.0356      10137.472    
ec    57000  57             0.001          3100.0944     -1820.7572      204.76723      13230.278      9979.4577    
ec    57100  57.1           0.001          3050.1382     -1820.1945      201.46753     -4095.4272      10028.423    
ec    57200  57.2           0.001          2835.4553     -1804.9251      187.2873       4668.5559      10098.951    
ec    57300  57.3           0.001          2880.0928     -1805.3535      190.2357      -9262.7439      10163.014    
ec    57400  57.4           0.001          2855.1094     -1803.5943      188.5855       7469.5116      10091.693    
ec    57500  57.5           0.001          2878.3605     -1803.2813      190.12128     -2084.0134      10113.028    
ec    57600  57.6           0.001          2937.1808     -1806.1523      194.00647      6759.0152      10067.865    
ec    57700  57.7           0.001          2898.5296     -1804.2113      191.45348     -14943.342      10205.343    
ec    57800  57.8           0.001          2866.7286     -1800.0839      189.35297     -14453.394      10192.496    
ec    57900  57.9           0.001          3017.6519     -1810.267       199.32174     -6181.2008      10184.948    
ec    58000  58             0.001          3075.8107     -1811.8488      203.16324     -14085.496      10172.819    
ec    58100  58.1           0.001          3021.7162     -1806.1961      199.5902       12460.684      10072.094    
ec    58200  58.2           0.001          3112.327      -1812.206       205.57522     -61.062421      10123.326    
ec    58300  58.3           0.001          3031.6671     -1806.304       200.24748     -6390.1184      10165.708    
ec    58400  58.4           0.001          3060.0899     -1807.9968      202.12486      11730.101      10131.154    
ec    58500  58.5           0.001          3044.229      -1808.6935      201.07722     -1431.7585      10085.718    
ec    58600  58.6           0.001          3012.4392     -1806.5984      198.97743      5982.4495      10070.145    
ec    58700  58.7           0.001          3031.3199     -1810.2546      200.22454      2980.5431      10047.042    
ec    58800  58.8           0.001          2958.5759     -1806.7783      195.41966     -16018.072      10068.009    
ec    58900  58.9           0.001          3259.4401     -1824.7507      215.29232     -1944.881       10078.671    
ec    59000  59             0.001          2990.5562     -1810.6976      197.53202      5531.7619      10012.925    
ec    59100  59.1           0.001          2906.4524     -1808.7233      191.9768      -1807.7394      10162.805    
ec    59200  59.2           0.001          3002.9015     -1814.6538      198.34745     -5348.2453      10171.018    
ec    59300  59.3           0.001          3012.1514     -1814.4001      198.95842     -3362.3211      10104.623    
ec    59400  59.4           0.001          2968.9042     -1809.4037      196.10186      1361.0495      10099.979    
ec    59500  59.5           0.001          2849.8998     -1800.9045      188.2414      -4622.1828      10162.271    
ec    59600  59.6           0.001          3099.4412     -1817.2909      204.72409      524.4334       10112.359    
ec    59700  59.7           0.001          3025.2972     -1811.606       199.82673      4278.1352      10247.788    
ec    59800  59.8           0.001          2828.2454     -1799.2268      186.81108     -2560.6354      10202.451    
ec    59900  59.9           0.001          2989.5594     -1812.7167      197.46618      831.94194      10118.304    
Fix halt condition for fix-id myhalt met on step 60000 with value 60 (../fix_halt.cpp:240)
ec    60000  60             0.001          2951.2443     -1812.5736      194.93539      13572.17       10083.082    
Loop time of 18.3582 on 2 procs for 30000 steps with 512 atoms

Performance: 141.190 ns/day, 0.170 hours/ns, 1634.147 timesteps/s, 836.683 katom-step/s
98.9% CPU use with 2 MPI tasks x no OpenMP threads

MPI task timing breakdown:
Section |  min time  |  avg time  |  max time  |%varavg| %total
---------------------------------------------------------------
Pair    | 16.198     | 16.284     | 16.37      |   2.1 | 88.70
Neigh   | 0.84328    | 0.84449    | 0.84571    |   0.1 |  4.60
Comm    | 0.78132    | 0.8692     | 0.95707    |   9.4 |  4.73
Output  | 0.0027907  | 0.0050112  | 0.0072316  |   3.1 |  0.03
Modify  | 0.29599    | 0.2989     | 0.3018     |   0.5 |  1.63
Other   |            | 0.05655    |            |       |  0.31

Nlocal:            256 ave         259 max         253 min
Histogram: 1 0 0 0 0 0 0 0 0 1
Nghost:          998.5 ave        1008 max         989 min
Histogram: 1 0 0 0 0 0 0 0 0 1
Neighs:              0 ave           0 max           0 min
Histogram: 2 0 0 0 0 0 0 0 0 0
FullNghs:        10184 ave       10307 max       10061 min
Histogram: 1 0 0 0 0 0 0 0 0 1

Total # of neighbors = 20368
Ave neighs/atom = 39.78125
Neighbor list builds = 2174
Dangerous builds = 0

unfix myhalt

fix myhalt all halt 100 v_t >= 90.0 error continue

unfix NPT

fix NVT all nvt temp 300 300 ${tau_T}
fix NVT all nvt temp 300 300 1.0

run 10000000
WARNING: One or more atoms are time integrated more than once (../modify.cpp:296)
Per MPI rank memory allocation (min/avg/max) = 3.238 | 3.238 | 3.238 Mbytes
   Step          Time            Dt            Temp          PotEng         KinEng         Press          Volume    
ec    60000  60             0.001          2951.2443     -1812.5736      194.93539      13572.17       10083.082    
ec    60100  60.1           0.001          3472.2165     -1781.9547      229.34662      19057.256      10083.082    
ec    60200  60.2           0.001          3940.1514     -1742.798       260.25462      46692.113      10083.082    
ec    60300  60.3           0.001          4569.6039     -1716.0415      301.83118      58036.331      10083.082    
ec    60400  60.4           0.001          5275.3472     -1699.6855      348.44689      66838.747      10083.082    
ec    60500  60.5           0.001          5787.0047     -1662.9236      382.24285      100909.76      10083.082    
ec    60600  60.6           0.001          6350.4919     -1631.9604      419.46227      98253.093      10083.082    
ec    60700  60.7           0.001          6970.3391     -1606.6626      460.40438      126993.98      10083.082    
ec    60800  60.8           0.001          7552.3146     -1589.1022      498.84499      150505.4       10083.082    
ec    60900  60.9           0.001          8268.5416     -1587.2253      546.15317      148298.97      10083.082    
ec    61000  61             0.001          8737.2245     -1574.9745      577.11058      159390.61      10083.082    
ec    61100  61.1           0.001          9212.8327     -1561.484       608.52542      164705.31      10083.082    
ec    61200  61.2           0.001          9618.4525     -1549.7253      635.31739      178284.08      10083.082    
ec    61300  61.3           0.001          9550.1439     -1517.9969      630.80548      191606.46      10083.082    
ec    61400  61.4           0.001          10159.23      -1534.0862      671.03677      186902.35      10083.082    
ec    61500  61.5           0.001          9938.0789     -1509.7479      656.42933      189724.38      10083.082    
ec    61600  61.6           0.001          10054.164     -1505.8314      664.09698      193941.69      10083.082    
ec    61700  61.7           0.001          10398.697     -1528.0663      686.85404      204329.16      10083.082    
ec    61800  61.8           0.001          10026.987     -1508.2193      662.30188      203023.87      10083.082    
ec    61900  61.9           0.001          10201.602     -1527.6344      673.83551      196012.82      10083.082    
ec    62000  62             0.001          10088.802     -1531.1062      666.38486      185920.49      10083.082    
ec    62100  62.1           0.001          9596.8682     -1510.4895      633.89171      184036.02      10083.082    
ec    62200  62.2           0.001          9699.046      -1542.4856      640.64075      172686.71      10083.082    
ec    62300  62.3           0.001          9529.6877     -1557.1174      629.4543       177049.73      10083.082    
ec    62400  62.4           0.001          8917.3266     -1546.711       589.00667      168629.19      10083.082    
ec    62500  62.5           0.001          8663.7715     -1551.3123      572.25886      167831.84      10083.082    
ec    62600  62.6           0.001          8340.2025     -1557.1514      550.88651      168479.22      10083.082    
ec    62700  62.7           0.001          8366.5761     -1580.9326      552.62853      175234.52      10083.082    
ec    62800  62.8           0.001          8215.0008     -1587.094       542.61669      155401.95      10083.082    
ec    62900  62.9           0.001          7843.7545     -1580.2698      518.09516      143775.57      10083.082    
ec    63000  63             0.001          7503.4281     -1584.2043      495.61594      148531.68      10083.082    
ec    63100  63.1           0.001          7392.1604     -1594.509       488.26649      134905.65      10083.082    
[...]
ec    74300  74.3           0.001          3392.0316     -1787.902       224.05024      7192.5843      10083.082    
ec    74400  74.4           0.001          3500.6996     -1796.9818      231.22798      22783.093      10083.082    
ec    74500  74.5           0.001          3337.8598     -1783.0558      220.47209      23933.31       10083.082    
ec    74600  74.6           0.001          3289.4057     -1779.3279      217.27161      21998.797      10083.082    
ec    74700  74.7           0.001          3326.2922     -1784.576       219.70804      29524.775      10083.082    
ec    74800  74.8           0.001          3509.1237     -1798.5353      231.78441      14823.742      10083.082    
ec    74900  74.9           0.001          3241.3382     -1782.864       214.09666      18293.707      10083.082    
ec    75000  75             0.001          3270.9101     -1785.9984      216.04994      26381.709      10083.082    
ec    75100  75.1           0.001          3359.2488     -1789.9071      221.88488      18236.729      10083.082    
ec    75200  75.2           0.001          3281.2393     -1786.7085      216.7322       2056.3626      10083.082    
ec    75300  75.3           0.001          3407.7506     -1797.8613      225.08852      11714.944      10083.082    
ec    75400  75.4           0.001          3251.9122     -1789.6379      214.79509      10384.539      10083.082    
ec    75500  75.5           0.001          3344.5707     -1799.2361      220.91537     -2508.6021      10083.082    
ec    75600  75.6           0.001          3174.714      -1787.7453      209.696        18893.319      10083.082    
ec    75700  75.7           0.001          3319.7908     -1797.683       219.2786       23767.004      10083.082    
ec    75800  75.8           0.001          3231.058      -1793.5542      213.41763     -7062.3474      10083.082    
ec    75900  75.9           0.001          3329.6568     -1801.1713      219.93027      16605.138      10083.082    
ec    76000  76             0.001          3300.9873     -1798.8554      218.03659      10208.114      10083.082    
ec    76100  76.1           0.001          3236.2979     -1798.1825      213.76374      9248.6315      10083.082    
ec    76200  76.2           0.001          3296.1693     -1802.7566      217.71836      2929.6899      10083.082    
ec    76300  76.3           0.001          3310.5813     -1805.6628      218.6703      -431.81484      10083.082    
ec    76400  76.4           0.001          3208.6231     -1800.3091      211.93576      13811.423      10083.082    
ec    76500  76.5           0.001          3220.9854     -1802.6634      212.75231     -1279.4924      10083.082    
ec    76600  76.6           0.001          2996.9509     -1788.3538      197.9544       17977.604      10083.082    
ec    76700  76.7           0.001          3240.2835     -1803.0133      214.02699      923.41133      10083.082    
ec    76800  76.8           0.001          3262.3332     -1806.3322      215.48342      13646.987      10083.082    
ec    76900  76.9           0.001          3132.3698     -1798.0083      206.89908      17533.333      10083.082    
ec    77000  77             0.001          3154.4334     -1798.9853      208.35642      20151.742      10083.082    
ec    77100  77.1           0.001          3374.4565     -1813.5987      222.88938      5192.0396      10083.082    
ec    77200  77.2           0.001          3095.6085     -1796.9707      204.47093      2723.3084      10083.082    
ec    77300  77.3           0.001          3219.1148     -1806.7771      212.62876      12311.048      10083.082    
ec    77400  77.4           0.001          3027.8876     -1794.3071      199.99783      11568.814      10083.082    
ec    77500  77.5           0.001          3262.916      -1809.4895      215.52191      162.81835      10083.082    
ec    77600  77.6           0.001          3250.1898     -1806.8777      214.68132      4908.5654      10083.082    
ec    77700  77.7           0.001          3213.2598     -1803.1332      212.24202      24734.888      10083.082    
ec    77800  77.8           0.001          3083.4366     -1796.4072      203.66695      2156.9053      10083.082    
ec    77900  77.9           0.001          3172.0853     -1803.4309      209.52237      2005.5731      10083.082    
ec    78000  78             0.001          3241.8957     -1809.0619      214.13348      8446.7076      10083.082    
ec    78100  78.1           0.001          3142.3378     -1802.8623      207.55749      12521.542      10083.082    
ec    78200  78.2           0.001          3069.5792     -1796.0468      202.75164      22417.721      10083.082    
ec    78300  78.3           0.001          3101.7431     -1799.4996      204.87613     -481.89403      10083.082    
ec    78400  78.4           0.001          3061.1575     -1797.098       202.19537     -4257.5794      10083.082    
ec    78500  78.5           0.001          3243.5225     -1810.945       214.24093      5897.8241      10083.082    
ec    78600  78.6           0.001          3067.7614     -1802.3954      202.63157      12820.216      10083.082    
ec    78700  78.7           0.001          2966.6651     -1796.8007      195.95397      7336.7563      10083.082    
ec    78800  78.8           0.001          2975.2475     -1797.1352      196.52085      4954.6417      10083.082    
ec    78900  78.9           0.001          3057.2048     -1805.041       201.93429      3848.8022      10083.082    
ec    79000  79             0.001          3076.0183     -1807.7204      203.17696      3123.2798      10083.082    
ec    79100  79.1           0.001          3209.4956     -1815.8483      211.99339     -7582.276       10083.082    
ec    79200  79.2           0.001          2962.9342     -1801.9527      195.70753     -4813.5075      10083.082    
ec    79300  79.3           0.001          3036.8241     -1808.0951      200.5881       4060.9892      10083.082    
ec    79400  79.4           0.001          2995.1653     -1804.8275      197.83646      10079.258      10083.082    
ec    79500  79.5           0.001          3050.7494     -1808.9006      201.5079       4262.1192      10083.082    
ec    79600  79.6           0.001          3030.4766     -1807.6969      200.16884     -4891.8043      10083.082    
ec    79700  79.7           0.001          2850.264      -1796.449       188.26545      7167.7413      10083.082    
ec    79800  79.8           0.001          3122.1435     -1813.3616      206.22361     -7226.9483      10083.082    
ec    79900  79.9           0.001          3090.34       -1811.3902      204.12293     -1732.9292      10083.082    
ec    80000  80             0.001          2997.1343     -1807.1059      197.96652      11880.378      10083.082    
ec    80100  80.1           0.001          3000.5692     -1808.9294      198.1934       11407.476      10083.082    
ec    80200  80.2           0.001          3099.9799     -1816.9198      204.75967      3844.041       10083.082    
ec    80300  80.3           0.001          3066.6509     -1816.5703      202.55822     -11853.045      10083.082    
ec    80400  80.4           0.001          3013.6841     -1815.942       199.05967      2076.3561      10083.082    
ec    80500  80.5           0.001          3040.8693     -1818.3288      200.8553      -3858.8026      10083.082    
ec    80600  80.6           0.001          2898.2498     -1808.0247      191.435        19680.403      10083.082    
ec    80700  80.7           0.001          2968.3225     -1810.9901      196.06344      16922.225      10083.082    
ec    80800  80.8           0.001          3029.4522     -1815.7818      200.10118      3442.2464      10083.082    
ec    80900  80.9           0.001          2881.5829     -1805.2399      190.33413     -1351.857       10083.082    
ec    81000  81             0.001          3026.6773     -1812.8671      199.91789     -7457.3043      10083.082    
ec    81100  81.1           0.001          3100.2566     -1821.0637      204.77795     -1378.3198      10083.082    
ec    81200  81.2           0.001          2954.9302     -1811.3061      195.17886      8935.0957      10083.082    
ec    81300  81.3           0.001          2898.1711     -1807.9085      191.42981      811.9243       10083.082    
ec    81400  81.4           0.001          3207.9993     -1829.156       211.89456     -6124.3239      10083.082    
ec    81500  81.5           0.001          3051.2267     -1818.4989      201.53943     -9230.0197      10083.082    
ec    81600  81.6           0.001          2997.6265     -1814.1623      197.99903      4245.9818      10083.082    
ec    81700  81.7           0.001          3038.962      -1818.2127      200.72932     -14372.45       10083.082    
ec    81800  81.8           0.001          2902.008      -1809.7085      191.68324      3803.5185      10083.082    
ec    81900  81.9           0.001          2963.534      -1812.2713      195.74715      3801.9704      10083.082    
ec    82000  82             0.001          2979.3117     -1816.354       196.7893       6876.5526      10083.082    
ec    82100  82.1           0.001          2989.9692     -1818.1563      197.49325      7564.8323      10083.082    
ec    82200  82.2           0.001          2975.4778     -1816.0467      196.53606      8199.1236      10083.082    
ec    82300  82.3           0.001          2849.3147     -1807.3335      188.20275     -359.76807      10083.082    
ec    82400  82.4           0.001          2941.533      -1813.392       194.29394      4618.3119      10083.082    
ec    82500  82.5           0.001          3036.7111     -1817.6268      200.58064      568.66259      10083.082    
ec    82600  82.6           0.001          2966.4076     -1811.2997      195.93696      2824.4016      10083.082    
ec    82700  82.7           0.001          2970.9889     -1812.6626      196.23957     -8418.1821      10083.082    
ec    82800  82.8           0.001          2889.1707     -1810.031       190.83531     -13387.982      10083.082    
ec    82900  82.9           0.001          2977.5051     -1817.8465      196.66997      7720.6016      10083.082    
ec    83000  83             0.001          2870.7634     -1811.0477      189.61948     -770.25463      10083.082    
ec    83100  83.1           0.001          2924.7475     -1816.0249      193.18523      3633.2317      10083.082    
ec    83200  83.2           0.001          2840.4992     -1810.6358      187.62046     -17238.048      10083.082    
ec    83300  83.3           0.001          2821.7341     -1811.8729      186.381        49.910461      10083.082    
ec    83400  83.4           0.001          2954.0415     -1816.392       195.12016      9823.6015      10083.082    
ec    83500  83.5           0.001          2970.6383     -1816.104       196.21641      5755.7812      10083.082    
ec    83600  83.6           0.001          3000.2548     -1820.1722      198.17263     -9940.0852      10083.082    
ec    83700  83.7           0.001          2879.6556     -1812.3859      190.20682     -2004.3208      10083.082    
ec    83800  83.8           0.001          2774.5489     -1807.2142      183.26432      5601.2391      10083.082    
ec    83900  83.9           0.001          2868.5579     -1814.6606      189.4738       8259.3945      10083.082    
ec    84000  84             0.001          2862.7932     -1814.5461      189.09303      1424.9682      10083.082    
ec    84100  84.1           0.001          2822.7852     -1813.3511      186.45042     -4140.8568      10083.082    
ec    84200  84.2           0.001          2867.088      -1817.2861      189.37671     -8918.4917      10083.082    
ec    84300  84.3           0.001          2894.0804     -1819.6568      191.15961     -14343.033      10083.082    
ec    84400  84.4           0.001          2765.739      -1811.9244      182.68241     -1374.6434      10083.082    
ec    84500  84.5           0.001          2862.416      -1818.2481      189.06811     -3926.2888      10083.082    
ec    84600  84.6           0.001          2881.9827     -1820.3327      190.36053     -2458.4916      10083.082    
ec    84700  84.7           0.001          2880.1483     -1817.8665      190.23936     -2161.5096      10083.082    
ec    84800  84.8           0.001          2859.8962     -1816.3876      188.90167     -5741.0053      10083.082    
ec    84900  84.9           0.001          2927.6002     -1819.6714      193.37366     -6133.3905      10083.082    
ec    85000  85             0.001          2798.9393     -1810.7179      184.87536     -9758.1124      10083.082    
ec    85100  85.1           0.001          2888.5409     -1818.6002      190.79371      2525.9559      10083.082    
ec    85200  85.2           0.001          2820.0353     -1814.6313      186.26879      761.44471      10083.082    
ec    85300  85.3           0.001          2989.9059     -1826.4353      197.48907      6144.2881      10083.082    
ec    85400  85.4           0.001          2993.6249     -1827.1221      197.73472     -11984.019      10083.082    
ec    85500  85.5           0.001          2913.4855     -1822.8819      192.44135     -10277.962      10083.082    
ec    85600  85.6           0.001          2898.7141     -1819.9915      191.46567     -4375.3076      10083.082    
ec    85700  85.7           0.001          2945.441      -1823.9679      194.55208     -9914.4766      10083.082    
ec    85800  85.8           0.001          2900.3842     -1821.6684      191.57598      4524.1802      10083.082    
ec    85900  85.9           0.001          2884.5738     -1823.8335      190.53168     -6006.532       10083.082    
ec    86000  86             0.001          2853.2908     -1825.4431      188.46538     -10876.131      10083.082    
ec    86100  86.1           0.001          2892.2146     -1829.5219      191.03637      1904.787       10083.082    
ec    86200  86.2           0.001          2738.6014     -1819.3679      180.88992      7513.5311      10083.082    
ec    86300  86.3           0.001          2804.3238     -1826.604       185.23101     -3763.9612      10083.082    
ec    86400  86.4           0.001          2917.019      -1833.2821      192.67474      7271.7053      10083.082    
ec    86500  86.5           0.001          2830.7853     -1826.2917      186.97885      6502.4818      10083.082    
ec    86600  86.6           0.001          2839.467      -1827.3397      187.55228     -7761.0208      10083.082    
ec    86700  86.7           0.001          2669.2322     -1814.7778      176.30795      8439.3478      10083.082    
ec    86800  86.8           0.001          2746.5007     -1819.0282      181.41168      4681.269       10083.082    
ec    86900  86.9           0.001          2764.4006     -1820.4966      182.594       -5238.5341      10083.082    
ec    87000  87             0.001          2775.5022     -1819.7884      183.32729      2491.9102      10083.082    
ec    87100  87.1           0.001          2656.8944     -1810.478       175.49301     -5541.4388      10083.082    
ec    87200  87.2           0.001          2825.5236     -1820.9668      186.6313       5847.6291      10083.082    
ec    87300  87.3           0.001          2830.4223     -1818.4584      186.95486     -26.96281       10083.082    
ec    87400  87.4           0.001          2740.9403     -1812.0757      181.04441     -7899.8554      10083.082    
ec    87500  87.5           0.001          2894.6187     -1823.6566      191.19517     -6459.9684      10083.082    
ec    87600  87.6           0.001          2902.66       -1827.4371      191.72631      12899.029      10083.082    
ec    87700  87.7           0.001          2812.0764     -1823.8459      185.74308     -5765.3187      10083.082    
ec    87800  87.8           0.001          2779.2468     -1822.9362      183.57462     -6911.4307      10083.082    
ec    87900  87.9           0.001          2960.9063     -1833.4664      195.57359      1884.6847      10083.082    
ec    88000  88             0.001          2963.4938     -1832.3126      195.7445      -12847.102      10083.082    
ec    88100  88.1           0.001          2830.8851     -1823.4421      186.98544     -6206.5219      10083.082    
ec    88200  88.2           0.001          2818.1249     -1822.5609      186.1426      -5270.1828      10083.082    
ec    88300  88.3           0.001          2731.562      -1819.3595      180.42495     -8323.0766      10083.082    
ec    88400  88.4           0.001          2652.7265     -1813.4233      175.21772      223.10641      10083.082    
ec    88500  88.5           0.001          2921.5316     -1833.096       192.97281      130.5798       10083.082    
ec    88600  88.6           0.001          2803.5475     -1827.0262      185.17973      549.21247      10083.082    
ec    88700  88.7           0.001          2640.0016     -1814.3596      174.37721     -5664.6657      10083.082    
ec    88800  88.8           0.001          2736.8895     -1819.8291      180.77685     -8822.5031      10083.082    
ec    88900  88.9           0.001          2716.4095     -1817.4507      179.4241      -275.66047      10083.082    
ec    89000  89             0.001          2806.8826     -1825.0561      185.40002      576.63457      10083.082    
ec    89100  89.1           0.001          2738.8727     -1820.876       180.90784     -708.04971      10083.082    
ec    89200  89.2           0.001          2748.336      -1821.5243      181.53291      5959.0925      10083.082    
ec    89300  89.3           0.001          2721.0903     -1818.7432      179.73327      12868.5        10083.082    
ec    89400  89.4           0.001          2726.1863     -1818.4434      180.06988     -2978.1009      10083.082    
ec    89500  89.5           0.001          2856.5971     -1826.5816      188.68376     -132.65221      10083.082    
ec    89600  89.6           0.001          2842.2089     -1826.3835      187.73339      5277.2278      10083.082    
ec    89700  89.7           0.001          2892.701      -1829.4603      191.06849     -1323.1939      10083.082    
ec    89800  89.8           0.001          2772.1823     -1820.4967      183.108       -2371.6576      10083.082    
ec    89900  89.9           0.001          2736.882      -1819.481       180.77635     -8193.5749      10083.082    
Fix halt condition for fix-id myhalt met on step 90000 with value 90 (../fix_halt.cpp:240)
ec    90000  90             0.001          2905.0857     -1828.6505      191.88653      3690.0747      10083.082    
Loop time of 20.2446 on 2 procs for 30000 steps with 512 atoms

Performance: 128.034 ns/day, 0.187 hours/ns, 1481.880 timesteps/s, 758.722 katom-step/s
99.2% CPU use with 2 MPI tasks x no OpenMP threads

MPI task timing breakdown:
Section |  min time  |  avg time  |  max time  |%varavg| %total
---------------------------------------------------------------
Pair    | 18.166     | 18.259     | 18.352     |   2.2 | 90.19
Neigh   | 0.87608    | 0.87721    | 0.87834    |   0.1 |  4.33
Comm    | 0.79254    | 0.88715    | 0.98176    |  10.0 |  4.38
Output  | 0.0030039  | 0.0054539  | 0.007904   |   3.3 |  0.03
Modify  | 0.15631    | 0.15815    | 0.15999    |   0.5 |  0.78
Other   |            | 0.05798    |            |       |  0.29

Nlocal:            256 ave         258 max         254 min
Histogram: 1 0 0 0 0 0 0 0 0 1
Nghost:          989.5 ave        1003 max         976 min
Histogram: 1 0 0 0 0 0 0 0 0 1
Neighs:              0 ave           0 max           0 min
Histogram: 2 0 0 0 0 0 0 0 0 0
FullNghs:        10161 ave       10300 max       10022 min
Histogram: 1 0 0 0 0 0 0 0 0 1

Total # of neighbors = 20322
Ave neighs/atom = 39.691406
Neighbor list builds = 2216
Dangerous builds = 0

write_data cell.data
System init for write_data ...
WARNING: One or more atoms are time integrated more than once (../modify.cpp:296)
Total wall time: 0:00:44
