

units metal
timestep 0.001
boundary p p p

lattice         diamond 5.43
Lattice spacing in x,y,z = 5.43 5.43 5.43
region          box block 0 ${N} 0 ${N} 0 ${N}
region          box block 0 3 0 ${N} 0 ${N}
region          box block 0 3 0 3 0 ${N}
region          box block 0 3 0 3 0 3
create_box      1 box
Created orthogonal box = (0 0 0) to (16.29 16.29 16.29)
  1 by 1 by 2 MPI processor grid
create_atoms    1 box
Created 216 atoms
  using lattice units in orthogonal box = (0 0 0) to (16.29 16.29 16.29)
  create_atoms CPU = 0.001 seconds

timestep ${dt}
timestep 0.001

mass 1 28.0855
labelmap atom 1 Si

pair_style sw
pair_coeff * * Si.sw Si
Reading sw potential file Si.sw with DATE: 2007-06-11


velocity all create ${temp} 4928459 mom yes rot yes dist gaussian
velocity all create 300 4928459 mom yes rot yes dist gaussian

variable t equal time
#fix myhalt all halt 100 v_t >= 30.0 error continue

#fix NVE all nve

#run 10000000

#unfix myhalt

compute 1 all vacf

thermo 100
thermo_style	custom step time dt temp pe ke press vol #c_1[4]
thermo_modify	line one flush yes format 1 "ec %8lu" flush yes


fix NPT all npt temp ${temp} ${temp} ${tau_T} iso 0.0 0.0 1.0
fix NPT all npt temp 300 ${temp} ${tau_T} iso 0.0 0.0 1.0
fix NPT all npt temp 300 300 ${tau_T} iso 0.0 0.0 1.0
fix NPT all npt temp 300 300 0.1 iso 0.0 0.0 1.0

fix myhalt all halt 100 v_t >= 30.0 error continue

run 10000000

CITE-CITE-CITE-CITE-CITE-CITE-CITE-CITE-CITE-CITE-CITE-CITE-CITE

Your simulation uses code contributions which should be cited:

- Type Label Framework: https://doi.org/10.1021/acs.jpcb.3c08419

@Article{Gissinger24,
 author = {Jacob R. Gissinger, Ilia Nikiforov, Yaser Afshar, Brendon Waters, Moon-ki Choi, Daniel S. Karls, Alexander Stukowski, Wonpil Im, Hendrik Heinz, Axel Kohlmeyer, and Ellad B. Tadmor},
 title = {Type Label Framework for Bonded Force Fields in LAMMPS},
 journal = {J. Phys. Chem. B},
 year =    2024,
 volume =  128,
 number =  13,
 pages =   {3282--3297}
}

CITE-CITE-CITE-CITE-CITE-CITE-CITE-CITE-CITE-CITE-CITE-CITE-CITE

Neighbor list info ...
  update: every = 1 steps, delay = 0 steps, check = yes
  max neighbors/atom: 2000, page size: 100000
  master list distance cutoff = 5.77118
  ghost atom cutoff = 5.77118
  binsize = 2.88559, bins = 6 6 6
  1 neighbor lists, perpetual/occasional/extra = 1 0 0
  (1) pair sw, perpetual
      attributes: full, newton on
      pair build: full/bin/atomonly
      stencil: full/bin/3d
      bin: standard
Per MPI rank memory allocation (min/avg/max) = 3.59 | 3.59 | 3.59 Mbytes
   Step          Time            Dt            Temp          PotEng         KinEng         Press          Volume    
ec        0  0              0.001          300           -936.70522      8.3372794      2592.6296      4322.7812    
ec      100  0.1            0.001          156.46297     -931.70983      4.3482515     -1405.9181      4340.1278    
ec      200  0.2            0.001          168.89921     -930.32901      4.6938663      460.82262      4334.3897    
ec      300  0.3            0.001          245.22011     -930.35196      6.8148952      1336.3858      4332.1813    
ec      400  0.4            0.001          274.72964     -929.05392      7.6349924     -2441.5363      4348.1199    
ec      500  0.5            0.001          321.78783     -928.46348      8.9427835      1883.2622      4333.833     
ec      600  0.6            0.001          245.19884     -925.39448      6.8143041     -587.13147      4344.0881    
ec      700  0.7            0.001          349.26929     -928.6461       9.7065188     -1354.0803      4346.5586    
ec      800  0.8            0.001          251.53618     -927.11468      6.9904247      1254.5168      4333.1774    
ec      900  0.9            0.001          275.06956     -928.48192      7.6444391     -1454.2746      4347.6103    
ec     1000  1              0.001          315.37361     -929.56541      8.7645264      1824.718       4333.1331    
ec     1100  1.1            0.001          299.17467     -928.33845      8.3143427     -615.26616      4342.1438    
ec     1200  1.2            0.001          346.83177     -928.79148      9.6387777     -824.27942      4346.6524    
ec     1300  1.3            0.001          305.52819     -927.64604      8.490913       2382.2603      4330.436     
ec     1400  1.4            0.001          290.27377     -927.91016      8.0669784     -2984.6748      4354.662     
ec     1500  1.5            0.001          306.4185      -928.99491      8.5156553      3011.6832      4328.1321    
ec     1600  1.6            0.001          258.33146     -927.88882      7.1792717     -868.96837      4342.8732    
ec     1700  1.7            0.001          279.48613     -927.87696      7.7671799     -3406.7171      4354.182     
ec     1800  1.8            0.001          300.67576     -927.74782      8.3560592      4944.6097      4316.839     
ec     1900  1.9            0.001          292.00387     -927.37424      8.1150595     -6445.6327      4369.5135    
ec     2000  2              0.001          292.29332     -928.10777      8.1231035      3417.3468      4324.597     
ec     2100  2.1            0.001          237.41719     -927.8005       6.5980447      910.27337      4335.0888    
ec     2200  2.2            0.001          283.6089      -928.80874      7.8817553     -6268.1206      4367.3259    
ec     2300  2.3            0.001          260.0926      -927.35496      7.2282155      8523.1674      4303.7719    
ec     2400  2.4            0.001          288.35811     -927.5311       8.0137405     -6403.8655      4370.1759    
ec     2500  2.5            0.001          336.50693     -928.8051       9.3518408      2112.7314      4331.6583    
ec     2600  2.6            0.001          323.80096     -928.94412      8.9987302      2948.3272      4328.3009    
ec     2700  2.7            0.001          257.03218     -928.2051       7.1431635     -6630.1993      4368.3513    
ec     2800  2.8            0.001          293.96504     -929.06278      8.1695623      7199.6878      4309.2636    
ec     2900  2.9            0.001          339.18597     -929.59069      9.426294      -4474.6728      4360.4209    
ec     3000  3              0.001          264.93763     -927.26316      7.3628636      217.53106      4338.2379    
ec     3100  3.1            0.001          317.67145     -928.57297      8.8283855      2866.4532      4328.5587    
ec     3200  3.2            0.001          285.04594     -927.71668      7.9216921     -5422.0746      4364.4331    
ec     3300  3.3            0.001          289.75878     -928.44715      8.0526664      5464.3729      4316.7303    
ec     3400  3.4            0.001          250.22901     -928.07874      6.9540972     -2977.6328      4353.4295    
ec     3500  3.5            0.001          306.3588      -929.30416      8.5139964      276.33979      4340.0475    
ec     3600  3.6            0.001          376.41797     -930.204        10.461006      3313.6764      4326.701     
ec     3700  3.7            0.001          345.58192     -929.13606      9.6040435     -4579.7724      4361.5263    
ec     3800  3.8            0.001          314.66504     -928.42843      8.7448345      5454.0449      4321.0574    
ec     3900  3.9            0.001          281.55662     -928.08498      7.8247205     -1708.8757      4347.4951    
ec     4000  4              0.001          286.85678     -929.08394      7.972017      -1719.5275      4347.3056    
ec     4100  4.1            0.001          263.50885     -928.82215      7.3231563      4255.5728      4322.1111    
ec     4200  4.2            0.001          270.45691     -927.8283       7.5162495     -4197.8764      4358.5515    
ec     4300  4.3            0.001          299.93694     -928.03637      8.3355269      2853.387       4329.8187    
ec     4400  4.4            0.001          336.60549     -928.9904       9.3545801      279.33049      4339.3036    
ec     4500  4.5            0.001          275.06653     -927.5396       7.644355      -2757.992       4353.201     
ec     4600  4.6            0.001          308.28403     -928.94832      8.5675004      3412.9065      4325.4401    
ec     4700  4.7            0.001          311.99186     -929.58269      8.6705444     -2230.4995      4350.1851    
ec     4800  4.8            0.001          288.13567     -928.76324      8.0075585      1011.6771      4336.793     
ec     4900  4.9            0.001          315.95446     -928.32341      8.7806686      1134.1757      4334.8822    
ec     5000  5              0.001          323.2633      -928.23099      8.9837881     -2628.6798      4353.7272    
ec     5100  5.1            0.001          292.46618     -927.8517       8.1279074      2729.3916      4328.9613    
ec     5200  5.2            0.001          270.45803     -927.97441      7.5162805     -1168.8041      4346.4147    
ec     5300  5.3            0.001          287.32346     -928.71534      7.9849866     -62.372869      4340.6292    
ec     5400  5.4            0.001          286.92477     -927.66133      7.9739066      1523.8762      4332.5462    
ec     5500  5.5            0.001          324.32913     -927.84962      9.0134086     -3595.6501      4356.5759    
ec     5600  5.6            0.001          289.62218     -927.47306      8.0488702      2420.7483      4329.1121    
ec     5700  5.7            0.001          297.4161      -928.56425      8.2654704     -1223.6237      4345.886     
ec     5800  5.8            0.001          236.72339     -927.12896      6.5787633     -1295.664       4345.8599    
ec     5900  5.9            0.001          275.75624     -927.89528      7.6635228      3089.0884      4326.133     
ec     6000  6              0.001          326.22385     -928.12505      9.0660645     -4719.6646      4361.9004    
ec     6100  6.1            0.001          279.06513     -926.69772      7.7554798      2986.8155      4327.7116    
ec     6200  6.2            0.001          374.29597     -929.82229      10.402034     -390.0037       4342.7426    
ec     6300  6.3            0.001          288.20271     -927.82619      8.0094216     -3315.0821      4354.4504    
ec     6400  6.4            0.001          312.27831     -928.7539       8.678505       5263.3613      4317.86      
ec     6500  6.5            0.001          291.76793     -928.36385      8.1085024     -5534.7297      4364.3088    
ec     6600  6.6            0.001          299.48341     -928.63832      8.3229228      2815.3713      4327.9165    
ec     6700  6.7            0.001          347.8795      -929.55574      9.6678951      1573.5265      4334.7956    
ec     6800  6.8            0.001          244.97208     -926.13489      6.8080023     -5606.875       4364.8555    
ec     6900  6.9            0.001          304.02746     -927.60797      8.4492062      6661.7955      4312.0417    
ec     7000  7              0.001          248.847       -926.94693      6.9156897     -5950.2944      4366.3614    
ec     7100  7.1            0.001          248.80886     -927.73904      6.9146298      1965.915       4330.9513    
ec     7200  7.2            0.001          321.4969      -929.50195      8.9346983      3084.6348      4327.6928    
ec     7300  7.3            0.001          316.40142     -928.74313      8.79309       -6746.601       4369.172     
ec     7400  7.4            0.001          326.04048     -928.71755      9.0609686      7833.7311      4307.91      
ec     7500  7.5            0.001          306.95619     -928.22477      8.5305984     -5288.8643      4364.6069    
ec     7600  7.6            0.001          331.87254     -929.09512      9.223047       1609.9394      4334.402     
ec     7700  7.7            0.001          306.41324     -928.60635      8.5155092      3966.122       4324.327     
ec     7800  7.8            0.001          268.76426     -928.19456      7.469209      -6640.3689      4368.9938    
ec     7900  7.9            0.001          290.85267     -929.33383      8.0830665      7342.2724      4309.3391    
ec     8000  8              0.001          284.55885     -928.51549      7.9081555     -3999.866       4357.1122    
ec     8100  8.1            0.001          328.63049     -928.89688      9.1329473      342.84339      4340.4427    
ec     8200  8.2            0.001          315.49135     -928.31791      8.7677983      4152.0711      4323.7823    
ec     8300  8.3            0.001          278.2443      -927.50881      7.7326682     -5600.9004      4364.4492    
ec     8400  8.4            0.001          293.5422      -928.69307      8.1578111      4598.8789      4321.2112    
ec     8500  8.5            0.001          268.68506     -928.7663       7.4670079     -1475.3768      4344.9641    
ec     8600  8.6            0.001          292.4066      -928.94401      8.1262518     -1242.6905      4345.7047    
ec     8700  8.7            0.001          303.23901     -928.41452      8.4272943      3430.0716      4326.0771    
ec     8800  8.8            0.001          301.71273     -928.22249      8.3848778     -3128.894       4354.403     
ec     8900  8.9            0.001          296.63324     -927.99463      8.2437139      2060.0754      4332.5634    
ec     9000  9              0.001          329.72276     -928.96927      9.1633024      542.28179      4339.2157    
ec     9100  9.1            0.001          317.26145     -929.12745      8.816991      -1315.3933      4346.0932    
ec     9200  9.2            0.001          280.47152     -928.66464      7.7945647      1865.7979      4331.358     
ec     9300  9.3            0.001          311.38619     -929.48371      8.6537122     -1431.6257      4345.9421    
ec     9400  9.4            0.001          286.99205     -927.64376      7.9757764      241.02248      4339.3296    
ec     9500  9.5            0.001          303.17354     -927.68764      8.425475       644.9323       4337.8422    
ec     9600  9.6            0.001          288.00656     -927.62934      8.0039705     -1603.9264      4347.211     
ec     9700  9.7            0.001          250.87176     -927.31773      6.9719598      1099.2853      4334.2144    
ec     9800  9.8            0.001          274.37526     -928.50277      7.6251441     -1478.0875      4345.0177    
ec     9900  9.9            0.001          290.18116     -929.12683      8.0644046     -24.103064      4339.3411    
ec    10000  10             0.001          296.99181     -928.64343      8.2536789      1323.3588      4334.8027    
ec    10100  10.1           0.001          303.28132     -927.94049      8.4284703     -2295.5127      4350.008     
ec    10200  10.2           0.001          328.74303     -928.32389      9.1360749      1807.5855      4333.6292    
ec    10300  10.3           0.001          316.80274     -928.50429      8.8042431     -793.21338      4343.7787    
ec    10400  10.4           0.001          290.01066     -928.6565       8.0596663     -1174.2195      4344.9371    
ec    10500  10.5           0.001          265.93159     -928.18407      7.3904866      2982.7611      4327.5843    
ec    10600  10.6           0.001          263.43091     -927.76894      7.3209903     -3628.6794      4354.2538    
ec    10700  10.7           0.001          276.23805     -927.82571      7.6769125      1664.3257      4332.651     
ec    10800  10.8           0.001          268.52495     -927.39163      7.4625584      44.251298      4339.2034    
ec    10900  10.9           0.001          319.30943     -928.46125      8.8739065     -2687.5148      4352.3742    
ec    11000  11             0.001          329.40003     -928.45619      9.1543336      4042.6744      4323.6421    
ec    11100  11.1           0.001          283.61728     -927.21242      7.8819884     -3995.5995      4356.7346    
ec    11200  11.2           0.001          306.28475     -928.55254      8.5119384      1359.7497      4334.9354    
ec    11300  11.3           0.001          279.61864     -928.43661      7.7708623      1477.6923      4333.1419    
ec    11400  11.4           0.001          279.61732     -928.31238      7.7708257     -3543.1634      4356.2902    
ec    11500  11.5           0.001          323.46397     -928.32523      8.989365       5370.378       4318.9189    
ec    11600  11.6           0.001          321.31672     -927.82206      8.9296909     -4064.1061      4359.7821    
ec    11700  11.7           0.001          312.52133     -928.12286      8.6852587      1403.6593      4335.2292    
ec    11800  11.8           0.001          296.3958      -928.34309      8.2371152      2685.7823      4328.1878    
ec    11900  11.9           0.001          316.7205      -929.08686      8.8019576     -5914.6104      4367.876     
ec    12000  12             0.001          276.52053     -927.8436       7.6847631      7970.7391      4305.492     
ec    12100  12.1           0.001          312.85651     -927.63299      8.6945737     -6552.2007      4369.2397    
ec    12200  12.2           0.001          357.54627     -928.21332      9.9365439      930.94543      4338.7449    
ec    12300  12.3           0.001          292.83667     -927.25435      8.1382038      5388.6733      4317.4772    
ec    12400  12.4           0.001          311.14294     -928.42123      8.6469521     -9578.4361      4383.8563    
ec    12500  12.5           0.001          303.98039     -928.61196      8.447898       10086.806      4298.2396    
ec    12600  12.6           0.001          315.92517     -929.00879      8.7798548     -4984.677       4362.9736    
ec    12700  12.7           0.001          320.5437      -928.35706      8.9082078     -1368.8787      4347.848     
ec    12800  12.8           0.001          355.49417     -928.36843      9.879514       6957.3008      4312.7869    
ec    12900  12.9           0.001          354.32195     -928.78892      9.846937      -7673.0734      4376.2429    
ec    13000  13             0.001          279.32005     -927.50526      7.7625644      5510.0918      4316.766     
ec    13100  13.1           0.001          309.3404      -928.54645      8.5968577     -1209.1108      4347.2474    
ec    13200  13.2           0.001          307.38233     -928.64671      8.5424412     -2613.307       4351.4841    
ec    13300  13.3           0.001          265.44451     -927.37338      7.3769501      4567.6333      4320.9582    
ec    13400  13.4           0.001          274.16747     -927.21103      7.6193692     -4142.0495      4360.1624    
ec    13500  13.5           0.001          312.46728     -927.77806      8.6837567      1708.1366      4332.5279    
ec    13600  13.6           0.001          346.80836     -928.9532       9.6381271      118.40492      4340.5958    
ec    13700  13.7           0.001          289.61647     -928.43747      8.0487115     -2413.1634      4350.7195    
ec    13800  13.8           0.001          288.16395     -928.63072      8.0083446      3600.3171      4326.0449    
ec    13900  13.9           0.001          308.98492     -928.86989      8.5869785     -2581.208       4351.8303    
ec    14000  14             0.001          296.03289     -927.97179      8.2270296      627.78717      4337.5588    
ec    14100  14.1           0.001          321.12463     -928.50192      8.9243524      1470.5418      4335.9791    
ec    14200  14.2           0.001          266.00414     -927.15031      7.3925028     -3006.5647      4353.3821    
ec    14300  14.3           0.001          283.64159     -927.83305      7.882664       3035.963       4327.3419    
ec    14400  14.4           0.001          256.77015     -927.45799      7.1358816     -2283.8422      4349.6318    
ec    14500  14.5           0.001          244.02577     -927.46218      6.7817034     -513.58664      4342.315     
ec    14600  14.6           0.001          305.32346     -929.31155      8.4852234      2576.146       4328.6133    
ec    14700  14.7           0.001          296.99892     -928.33339      8.2538765     -3921.2908      4356.9072    
ec    14800  14.8           0.001          333.2669      -928.4927       9.2617974      3276.3847      4327.7393    
ec    14900  14.9           0.001          282.48855     -927.23344      7.8506198     -1509.223       4346.4963    
ec    15000  15             0.001          284.36668     -927.90539      7.9028148     -1895.0573      4348.6325    
ec    15100  15.1           0.001          307.69353     -929.25341      8.5510897      4121.2305      4323.1886    
ec    15200  15.2           0.001          282.73745     -928.56445      7.8575371     -4067.3763      4357.8256    
ec    15300  15.3           0.001          323.57099     -927.91323      8.992339       2841.2806      4330.6532    
ec    15400  15.4           0.001          333.69494     -928.12094      9.2736932      247.60066      4340.5721    
ec    15500  15.5           0.001          313.12689     -928.46739      8.7020879     -3215.7114      4354.8284    
ec    15600  15.6           0.001          292.17743     -928.59686      8.1198828      4672.8315      4320.489     
ec    15700  15.7           0.001          292.48955     -928.68954      8.1285571     -3839.0468      4357.1956    
ec    15800  15.8           0.001          289.90339     -927.98938      8.056685       1499.7078      4333.8754    
ec    15900  15.9           0.001          301.97569     -927.54383      8.3921855      824.59403      4337.0096    
ec    16000  16             0.001          296.46197     -927.44104      8.2389543     -3507.7361      4357.9708    
ec    16100  16.1           0.001          312.25133     -928.37652      8.6777553      4800.3384      4320.6217    
ec    16200  16.2           0.001          326.17305     -928.96081      9.0646529     -3428.6879      4356.7427    
ec    16300  16.3           0.001          313.03599     -928.69759      8.6995618      1375.1323      4335.6956    
ec    16400  16.4           0.001          306.4558      -928.52926      8.5166922      1890.8564      4332.969     
ec    16500  16.5           0.001          314.94873     -928.51026      8.7527184     -4086.0886      4359.2744    
ec    16600  16.6           0.001          361.51184     -929.3115       10.046751      5107.9048      4319.8108    
ec    16700  16.7           0.001          314.27402     -927.92038      8.7339676     -3276.1933      4356.8079    
ec    16800  16.8           0.001          277.06638     -927.69532      7.6999326      315.30478      4338.8602    
ec    16900  16.9           0.001          294.92389     -928.89789      8.1962095      2663.0994      4328.9129    
ec    17000  17             0.001          256.48093     -927.7202       7.1278438     -4676.4825      4360.3977    
ec    17100  17.1           0.001          280.4461      -927.73309      7.7938582      4626.185       4321.5922    
ec    17200  17.2           0.001          310.94234     -928.24679      8.6413773     -2263.7095      4351.1655    
ec    17300  17.3           0.001          280.03269     -927.55814      7.7823691     -1045.4113      4344.8009    
ec    17400  17.4           0.001          316.33961     -928.74774      8.7913722      3199.5366      4327.4845    
ec    17500  17.5           0.001          288.27071     -928.35363      8.0113114     -3949.7713      4357.4292    
ec    17600  17.6           0.001          292.94031     -928.80365      8.1410839      3247.0627      4327.1726    
ec    17700  17.7           0.001          321.42593     -929.46521      8.9327259     -733.20581      4343.9425    
ec    17800  17.8           0.001          272.38996     -927.18868      7.5699706     -1473.4313      4347.0255    
ec    17900  17.9           0.001          324.31365     -928.10634      9.0129783      2469.1388      4331.5744    
ec    18000  18             0.001          289.51613     -927.54582      8.0459229     -2493.8452      4351.5932    
ec    18100  18.1           0.001          286.23948     -928.35355      7.9548617      1508.2249      4334.1554    
ec    18200  18.2           0.001          287.29515     -928.62391      7.9841997     -261.29257      4341.051     
ec    18300  18.3           0.001          277.03027     -928.08938      7.6989291     -1264.179       4345.6877    
ec    18400  18.4           0.001          316.17875     -928.65349      8.7869018      1750.5708      4333.0417    
ec    18500  18.5           0.001          292.06011     -927.52653      8.1166224     -1933.4906      4348.9133    
ec    18600  18.6           0.001          330.88247     -928.36483      9.1955319      985.8073       4338.0179    
ec    18700  18.7           0.001          271.17739     -927.42355      7.5362721      102.70738      4339.3693    
ec    18800  18.8           0.001          280.64525     -928.54688      7.7993929     -1747.2063      4347.3713    
ec    18900  18.9           0.001          305.29685     -929.13639      8.4844838      2144.9713      4331.7297    
ec    19000  19             0.001          295.89549     -928.06137      8.2232112     -1331.5872      4345.9637    
ec    19100  19.1           0.001          349.67463     -928.91789      9.7177837     -67.924607      4342.5545    
ec    19200  19.2           0.001          304.90517     -927.89175      8.4735986      1471.4064      4334.6151    
ec    19300  19.3           0.001          304.48187     -928.35159      8.4618348     -2184.4438      4350.4972    
ec    19400  19.4           0.001          298.60044     -928.51412      8.2983843      1594.3639      4333.332     
ec    19500  19.5           0.001          285.67237     -928.44262      7.9391012     -395.28237      4340.9696    
ec    19600  19.6           0.001          293.36852     -928.65069      8.1529843     -1545.3463      4346.9317    
ec    19700  19.7           0.001          266.1265      -927.33656      7.3959033      2044.4417      4331.2284    
ec    19800  19.8           0.001          315.7309      -928.06191      8.7744557     -1956.8439      4350.3756    
ec    19900  19.9           0.001          310.5642      -927.85493      8.6308683      984.35017      4337.2529    
ec    20000  20             0.001          315.74099     -928.90918      8.7747362      951.29649      4336.5455    
ec    20100  20.1           0.001          293.9178      -928.95607      8.1682493     -2271.5193      4349.9789    
ec    20200  20.2           0.001          283.64847     -928.45752      7.882855       3022.0852      4326.9777    
ec    20300  20.3           0.001          343.71778     -929.6181       9.5522372     -2049.1816      4350.7102    
ec    20400  20.4           0.001          288.81421     -927.88215      8.0264157      918.45791      4336.5463    
ec    20500  20.5           0.001          312.80963     -928.52991      8.6932708      1632.4805      4334.3422    
ec    20600  20.6           0.001          297.54339     -928.13626      8.269008      -3554.2015      4356.4309    
ec    20700  20.7           0.001          261.33926     -927.62044      7.2628613      4427.0762      4320.9287    
ec    20800  20.8           0.001          294.72211     -929.32758      8.190602      -3441.201       4355.0528    
ec    20900  20.9           0.001          266.65286     -928.35691      7.4105314      857.29186      4336.0044    
ec    21000  21             0.001          295.66762     -928.14073      8.2168784      2845.2377      4328.1684    
ec    21100  21.1           0.001          309.62567     -928.14101      8.6047858     -6333.3897      4367.9288    
ec    21200  21.2           0.001          297.70304     -927.90993      8.2734447      7014.6156      4311.5985    
ec    21300  21.3           0.001          317.95333     -929.00473      8.8362192     -4074.9184      4358.8323    
ec    21400  21.4           0.001          281.73815     -929.08016      7.8297656     -418.88287      4341.0406    
ec    21500  21.5           0.001          275.85837     -928.94485      7.666361       5429.7288      4316.8934    
ec    21600  21.6           0.001          289.03999     -928.23615      8.0326903     -8208.6493      4375.3965    
ec    21700  21.7           0.001          294.25369     -928.08256      8.1775841      7173.1018      4310.4754    
ec    21800  21.8           0.001          319.25313     -928.60931      8.8723416     -2751.102       4353.46      
ec    21900  21.9           0.001          299.37342     -928.02273      8.3198661     -2211.9651      4350.533     
ec    22000  22             0.001          286.14837     -927.76846      7.9523297      5889.7639      4315.4384    
ec    22100  22.1           0.001          292.43227     -928.49739      8.1269652     -7239.1268      4370.9477    
ec    22200  22.2           0.001          279.958       -928.69794      7.7802934      4817.9972      4319.1953    
ec    22300  22.3           0.001          282.81873     -928.48444      7.859796      -1117.884       4344.1534    
ec    22400  22.4           0.001          295.58176     -927.63276      8.2144924     -2918.3756      4353.4886    
ec    22500  22.5           0.001          297.80063     -927.52923      8.2761567      4578.4937      4321.2289    
ec    22600  22.6           0.001          297.13096     -927.99926      8.257546      -4796.2618      4361.202     
ec    22700  22.7           0.001          298.1369      -928.69693      8.2855019      2786.7193      4328.9477    
ec    22800  22.8           0.001          321.82387     -929.67152      8.943785       499.6443       4338.1946    
ec    22900  22.9           0.001          304.77033     -928.53733      8.4698513     -2258.52        4351.1604    
ec    23000  23             0.001          296.83656     -927.33464      8.2493644      3160.4979      4327.5678    
ec    23100  23.1           0.001          330.00549     -928.30278      9.1711598     -2757.179       4353.2162    
ec    23200  23.2           0.001          291.41708     -928.13242      8.098752       904.563        4336.6768    
ec    23300  23.3           0.001          280.44191     -928.34791      7.7937419      1039.3435      4335.2527    
ec    23400  23.4           0.001          283.88689     -928.32568      7.8894809     -2402.0047      4350.7356    
ec    23500  23.5           0.001          290.58119     -927.80975      8.0755218      2136.8831      4331.0571    
ec    23600  23.6           0.001          318.5156      -927.57753      8.8518451     -1309.842       4346.8361    
ec    23700  23.7           0.001          324.89006     -926.3987       9.0289972     -390.56169      4344.9961    
ec    23800  23.8           0.001          337.81375     -927.89069      9.3881588      2287.2566      4333.0476    
ec    23900  23.9           0.001          310.65307     -928.14899      8.6333382     -2449.8459      4351.1902    
ec    24000  24             0.001          299.92042     -928.41439      8.3350678      1601.2038      4333.8414    
ec    24100  24.1           0.001          305.81225     -929.0307       8.4988072      504.21652      4339.1156    
ec    24200  24.2           0.001          300.07732     -928.80818      8.3394281     -1428.3723      4346.1802    
ec    24300  24.3           0.001          314.09071     -928.47722      8.7288732      2568.6712      4330.3943    
ec    24400  24.4           0.001          311.58826     -927.78294      8.6593279     -2011.1664      4350.4069    
ec    24500  24.5           0.001          302.09134     -927.74179      8.3953997      717.23206      4337.4248    
ec    24600  24.6           0.001          277.29434     -928.44591      7.7062679      770.80801      4336.6011    
ec    24700  24.7           0.001          285.75779     -928.79827      7.9414751     -2194.8092      4348.6748    
ec    24800  24.8           0.001          286.8286      -928.24493      7.971234       2756.484       4328.4345    
ec    24900  24.9           0.001          294.06272     -927.77421      8.1722768     -2681.654       4351.7888    
ec    25000  25             0.001          325.78443     -928.45875      9.0538527      1051.4647      4336.5371    
ec    25100  25.1           0.001          300.01964     -928.27092      8.3378253      930.67091      4336.5832    
ec    25200  25.2           0.001          267.03778     -928.6297       7.4212284     -2739.0005      4350.8933    
ec    25300  25.3           0.001          307.13214     -929.57924      8.5354881      3642.4688      4324.4023    
ec    25400  25.4           0.001          294.80462     -928.54519      8.1928949     -2964.6815      4352.9076    
ec    25500  25.5           0.001          303.12319     -928.22737      8.4240756      1120.2406      4336.94      
ec    25600  25.6           0.001          319.44878     -928.48035      8.877779       2042.3025      4332.956     
ec    25700  25.7           0.001          294.80654     -927.93198      8.1929481     -3765.9843      4356.9683    
ec    25800  25.8           0.001          302.94563     -929.20879      8.4191411      3865.6281      4322.9504    
ec    25900  25.9           0.001          251.86248     -928.24352      6.9994929     -2862.7029      4351.0941    
ec    26000  26             0.001          302.40956     -928.91226      8.4042432     -236.18037      4340.6866    
ec    26100  26.1           0.001          281.77334     -927.64478      7.8307434      2553.9938      4329.3463    
ec    26200  26.2           0.001          286.61438     -927.64103      7.9652804     -4260.113       4358.8591    
ec    26300  26.3           0.001          311.58651     -928.49658      8.6592792      3556.9561      4325.2212    
ec    26400  26.4           0.001          286.11164     -928.35486      7.9513088     -1899.6197      4348.5089    
ec    26500  26.5           0.001          306.07695     -929.76733      8.5061635     -350.61873      4341.5564    
ec    26600  26.6           0.001          261.72241     -928.24423      7.2735094      3165.2064      4326.6875    
ec    26700  26.7           0.001          313.69633     -928.52876      8.7179131     -4044.5949      4358.4264    
ec    26800  26.8           0.001          297.75741     -927.9701       8.2749558      3261.5482      4326.2069    
ec    26900  26.9           0.001          289.59723     -927.84599      8.0481766     -1688.6184      4347.8116    
ec    27000  27             0.001          313.65231     -928.91776      8.7166898     -892.69388      4344.9728    
ec    27100  27.1           0.001          269.06715     -928.28357      7.4776268      3475.8306      4324.5141    
ec    27200  27.2           0.001          272.72937     -928.67766      7.579403      -4812.6418      4360.3121    
ec    27300  27.3           0.001          284.65366     -928.1159       7.9107901      3524.5573      4324.8933    
ec    27400  27.4           0.001          290.06725     -927.43972      8.0612389     -932.65908      4345.3383    
ec    27500  27.5           0.001          319.58243     -928.31357      8.8814934     -2443.8847      4352.6256    
ec    27600  27.6           0.001          316.51667     -928.81517      8.796293       5441.4175      4317.4484    
ec    27700  27.7           0.001          278.79397     -928.59092      7.7479439     -5738.0235      4364.7871    
ec    27800  27.8           0.001          282.97995     -928.74474      7.8642762      3064.0474      4326.8675    
ec    27900  27.9           0.001          322.90401     -928.30151      8.9738032      1506.9111      4335.8987    
ec    28000  28             0.001          327.24158     -928.16806      9.0943481     -5018.8809      4363.4152    
ec    28100  28.1           0.001          316.82417     -928.42712      8.8048388      7079.3041      4311.2966    
ec    28200  28.2           0.001          268.57914     -927.89438      7.4640644     -5593.195       4364.328     
ec    28300  28.3           0.001          276.39998     -928.27734      7.6814129      951.7331       4335.2086    
ec    28400  28.4           0.001          319.82064     -928.68534      8.8881133      4064.1838      4323.554     
ec    28500  28.5           0.001          318.18666     -927.60138      8.8427034     -7347.6106      4374.0384    
ec    28600  28.6           0.001          304.07073     -927.46231      8.4504087      7835.1432      4308.2666    
ec    28700  28.7           0.001          304.07918     -928.15517      8.4506437     -4789.2914      4360.767     
ec    28800  28.8           0.001          305.5956      -928.60142      8.4927864     -1112.1696      4344.8791    
ec    28900  28.9           0.001          303.37858     -928.57916      8.4311733      6374.7362      4313.2817    
ec    29000  29             0.001          316.6821      -928.62413      8.8008905     -8314.8008      4376.9417    
ec    29100  29.1           0.001          325.41844     -927.6053       9.0436815      7137.1781      4311.7412    
ec    29200  29.2           0.001          317.31697     -927.53281      8.8185342     -2566.7379      4352.2411    
ec    29300  29.3           0.001          313.64607     -928.44137      8.7165164     -2517.6298      4352.6946    
ec    29400  29.4           0.001          301.72126     -928.53004      8.3851148      6465.3537      4313.1186    
ec    29500  29.5           0.001          301.1344      -928.54205      8.3688054     -6256.7004      4367.4633    
ec    29600  29.6           0.001          292.02392     -927.93631      8.1156167      3664.032       4325.0603    
ec    29700  29.7           0.001          295.57794     -927.00445      8.2143861     -608.22255      4342.6381    
ec    29800  29.8           0.001          326.18926     -927.5026       9.0651032     -3084.7779      4354.7791    
ec    29900  29.9           0.001          289.50556     -927.57396      8.0456292      4371.7461      4321.9165    
Fix halt condition for fix-id myhalt met on step 30000 with value 30 (../fix_halt.cpp:240)
ec    30000  30             0.001          295.77502     -928.16978      8.2198632     -3596.2339      4355.9536    
Loop time of 3.42948 on 2 procs for 30000 steps with 216 atoms

Performance: 755.800 ns/day, 0.032 hours/ns, 8747.690 timesteps/s, 1.890 Matom-step/s
95.5% CPU use with 2 MPI tasks x no OpenMP threads

MPI task timing breakdown:
Section |  min time  |  avg time  |  max time  |%varavg| %total
---------------------------------------------------------------
Pair    | 2.8422     | 2.8516     | 2.8611     |   0.6 | 83.15
Neigh   | 0          | 0          | 0          |   0.0 |  0.00
Comm    | 0.38591    | 0.39554    | 0.40517    |   1.5 | 11.53
Output  | 0.002515   | 0.0044345  | 0.006354   |   2.9 |  0.13
Modify  | 0.14       | 0.143      | 0.14599    |   0.8 |  4.17
Other   |            | 0.03486    |            |       |  1.02

Nlocal:            108 ave         108 max         108 min
Histogram: 2 0 0 0 0 0 0 0 0 0
Nghost:            726 ave         726 max         726 min
Histogram: 2 0 0 0 0 0 0 0 0 0
Neighs:              0 ave           0 max           0 min
Histogram: 2 0 0 0 0 0 0 0 0 0
FullNghs:         3672 ave        3672 max        3672 min
Histogram: 2 0 0 0 0 0 0 0 0 0

Total # of neighbors = 7344
Ave neighs/atom = 34
Neighbor list builds = 0
Dangerous builds = 0

unfix myhalt

fix myhalt all halt 100 v_t >= 60.0 error continue

unfix NPT

fix NVT all nvt temp ${temp} ${temp} ${tau_T}
fix NVT all nvt temp 300 ${temp} ${tau_T}
fix NVT all nvt temp 300 300 ${tau_T}
fix NVT all nvt temp 300 300 0.1

run 10000000
Per MPI rank memory allocation (min/avg/max) = 3.59 | 3.59 | 3.59 Mbytes
   Step          Time            Dt            Temp          PotEng         KinEng         Press          Volume    
ec    30000  30             0.001          295.77502     -928.16978      8.2198632     -3596.2339      4355.9536    
ec    30100  30.1           0.001          300.51027     -928.37035      8.3514603     -3588.756       4355.9536    
ec    30200  30.2           0.001          303.75542     -928.44216      8.4416459     -3647.7532      4355.9536    
ec    30300  30.3           0.001          309.95279     -928.31457      8.6138767     -3334.3222      4355.9536    
ec    30400  30.4           0.001          299.71403     -927.70849      8.3293319     -3620.8952      4355.9536    
ec    30500  30.5           0.001          321.14298     -928.30138      8.9248624     -3307.6079      4355.9536    
ec    30600  30.6           0.001          278.52402     -927.89607      7.7404418     -3700.477       4355.9536    
ec    30700  30.7           0.001          288.57432     -928.84904      8.0197491     -3801.6258      4355.9536    
ec    30800  30.8           0.001          297.8435      -928.84592      8.2773482     -3502.2669      4355.9536    
ec    30900  30.9           0.001          293.22538     -927.43905      8.1490064     -3617.0641      4355.9536    
ec    31000  31             0.001          313.29521     -927.79509      8.7067656     -3344.3497      4355.9536    
ec    31100  31.1           0.001          271.72543     -927.19748      7.5515028     -3571.5147      4355.9536    
ec    31200  31.2           0.001          314.3144      -929.04433      8.7350898     -3674.6755      4355.9536    
ec    31300  31.3           0.001          311.56348     -929.19254      8.6586392     -3633.9913      4355.9536    
ec    31400  31.4           0.001          276.09985     -927.65097      7.673072      -3713.8291      4355.9536    
ec    31500  31.5           0.001          325.71642     -927.85225      9.0519627     -3104.7835      4355.9536    
ec    31600  31.6           0.001          310.60948     -927.71967      8.6321268     -3400.2527      4355.9536    
ec    31700  31.7           0.001          331.93503     -929.13489      9.2247837     -3415.3968      4355.9536    
ec    31800  31.8           0.001          312.61607     -928.92607      8.6878918     -3582.5191      4355.9536    
ec    31900  31.9           0.001          276.40812     -927.85083      7.6816392     -3596.3445      4355.9536    
ec    32000  32             0.001          291.06277     -927.96745      8.0889054     -3472.1913      4355.9536    
ec    32100  32.1           0.001          297.15535     -927.81777      8.2582239     -3577.9832      4355.9536    
ec    32200  32.2           0.001          352.31197     -928.12329      9.7910776     -2901.0948      4355.9536    
ec    32300  32.3           0.001          329.27711     -927.40633      9.1509174     -3181.1113      4355.9536    
ec    32400  32.4           0.001          293.92975     -927.67247      8.1685814     -3493.8378      4355.9536    
ec    32500  32.5           0.001          280.62458     -927.80414      7.7988185     -3402.1169      4355.9536    
ec    32600  32.6           0.001          290.51785     -928.35423      8.0737615     -3756.8374      4355.9536    
ec    32700  32.7           0.001          326.82135     -929.19081      9.0826696     -3281.026       4355.9536    
ec    32800  32.8           0.001          316.0798      -928.09203      8.7841521     -3293.7249      4355.9536    
ec    32900  32.9           0.001          324.16656     -927.72904      9.0088905     -3222.39        4355.9536    
ec    33000  33             0.001          308.03802     -927.92137      8.5606634     -3338.4125      4355.9536    
ec    33100  33.1           0.001          291.66013     -928.46879      8.1055066     -3609.2756      4355.9536    
ec    33200  33.2           0.001          294.88528     -928.49325      8.1951365     -3332.6024      4355.9536    
ec    33300  33.3           0.001          276.94448     -927.63513      7.6965449     -3491.16        4355.9536    
ec    33400  33.4           0.001          300.31737     -927.65929      8.3460994     -3307.9265      4355.9536    
ec    33500  33.5           0.001          308.23676     -927.39865      8.5661867     -3242.5369      4355.9536    
ec    33600  33.6           0.001          300.68689     -927.28224      8.3563685     -3361.5399      4355.9536    
ec    33700  33.7           0.001          325.27519     -929.03883      9.0397005     -3317.6695      4355.9536    
ec    33800  33.8           0.001          284.29161     -928.46021      7.9007285     -3647.0861      4355.9536    
ec    33900  33.9           0.001          286.92986     -928.29485      7.9740479     -3586.6826      4355.9536    
ec    34000  34             0.001          300.52853     -927.75515      8.3519676     -3442.7097      4355.9536    
ec    34100  34.1           0.001          326.85526     -927.95211      9.0836119     -3338.4383      4355.9536    
ec    34200  34.2           0.001          338.02677     -928.58972      9.3940787     -3276.2916      4355.9536    
ec    34300  34.3           0.001          287.09816     -927.60456      7.9787253     -3361.5712      4355.9536    
ec    34400  34.4           0.001          300.97125     -928.36018      8.3642714     -3415.8815      4355.9536    
ec    34500  34.5           0.001          277.03529     -928.01378      7.6990687     -3624.6618      4355.9536    
ec    34600  34.6           0.001          295.77044     -928.71791      8.219736      -3646.8412      4355.9536    
ec    34700  34.7           0.001          320.39698     -929.20151      8.9041305     -3540.9893      4355.9536    
ec    34800  34.8           0.001          286.59176     -927.53532      7.9646518     -3540.2683      4355.9536    
ec    34900  34.9           0.001          305.21158     -927.5457       8.4821141     -3291.8251      4355.9536    
ec    35000  35             0.001          293.37115     -927.62967      8.1530575     -3525.5477      4355.9536    
ec    35100  35.1           0.001          284.71623     -928.56009      7.9125291     -3699.6474      4355.9536    
ec    35200  35.2           0.001          291.1899      -928.8102       8.0924384     -3650.2671      4355.9536    
ec    35300  35.3           0.001          284.42748     -928.16528      7.9045044     -3530.3339      4355.9536    
ec    35400  35.4           0.001          312.8636      -928.37143      8.6947709     -3342.4805      4355.9536    
ec    35500  35.5           0.001          330.20435     -928.69987      9.1766864     -3572.3293      4355.9536    
ec    35600  35.6           0.001          310.50803     -928.30091      8.6293072     -3373.5464      4355.9536    
ec    35700  35.7           0.001          296.13561     -928.13646      8.2298844     -3359.5349      4355.9536    
ec    35800  35.8           0.001          301.54542     -928.34259      8.3802281     -3656.2934      4355.9536    
ec    35900  35.9           0.001          302.01097     -928.2791       8.393166      -3590.0702      4355.9536    
ec    36000  36             0.001          298.60309     -928.11546      8.2984579     -3587.8765      4355.9536    
ec    36100  36.1           0.001          282.73833     -927.59491      7.8575616     -3589.9769      4355.9536    
ec    36200  36.2           0.001          279.50176     -927.56781      7.7676141     -3530.6792      4355.9536    
ec    36300  36.3           0.001          311.96624     -928.73597      8.6698322     -3610.7193      4355.9536    
ec    36400  36.4           0.001          283.0566      -928.33671      7.8664065     -3488.0047      4355.9536    
ec    36500  36.5           0.001          289.75923     -928.61288      8.0526789     -3608.428       4355.9536    
ec    36600  36.6           0.001          322.09824     -928.6995       8.9514101     -3337.5232      4355.9536    
ec    36700  36.7           0.001          316.06833     -927.83491      8.7838331     -3437.4398      4355.9536    
ec    36800  36.8           0.001          311.45466     -927.88587      8.6556149     -3477.6815      4355.9536    
ec    36900  36.9           0.001          311.69615     -928.85131      8.6623264     -3563.7394      4355.9536    
ec    37000  37             0.001          288.56537     -928.65555      8.0195004     -3777.5924      4355.9536    
ec    37100  37.1           0.001          278.47252     -928.0793       7.7390106     -3691.8484      4355.9536    
ec    37200  37.2           0.001          295.24509     -928.02441      8.205136      -3622.4997      4355.9536    
ec    37300  37.3           0.001          305.3855      -927.77559      8.4869473     -3573.355       4355.9536    
ec    37400  37.4           0.001          338.50647     -928.63595      9.4074101     -3447.5209      4355.9536    
ec    37500  37.5           0.001          295.79445     -928.52268      8.2204032     -3680.8196      4355.9536    
ec    37600  37.6           0.001          269.10456     -928.33844      7.4786664     -3683.1763      4355.9536    
ec    37700  37.7           0.001          286.15291     -928.38892      7.9524557     -3750.8226      4355.9536    
ec    37800  37.8           0.001          293.63484     -927.71093      8.1603856     -3480.0906      4355.9536    
ec    37900  37.9           0.001          321.3096      -928.33496      8.929493      -3382.5273      4355.9536    
ec    38000  38             0.001          305.95072     -928.1437       8.5026554     -3374.215       4355.9536    
ec    38100  38.1           0.001          317.56482     -928.79499      8.8254219     -3648.0244      4355.9536    
ec    38200  38.2           0.001          292.66519     -928.41912      8.1334382     -3627.0967      4355.9536    
ec    38300  38.3           0.001          254.75707     -928.18236      7.0799361     -3718.4829      4355.9536    
ec    38400  38.4           0.001          291.23936     -929.49801      8.0938131     -3930.8852      4355.9536    
ec    38500  38.5           0.001          268.58773     -927.88821      7.4643032     -3725.938       4355.9536    
ec    38600  38.6           0.001          302.0565      -928.14092      8.3944314     -3754.7553      4355.9536    
ec    38700  38.7           0.001          282.98754     -927.46204      7.8644871     -3837.9761      4355.9536    
ec    38800  38.8           0.001          293.9464      -927.8969       8.169044      -3616.1024      4355.9536    
ec    38900  38.9           0.001          301.0409      -928.94764      8.366207      -3693.5532      4355.9536    
ec    39000  39             0.001          263.46629     -928.50418      7.3219734     -3724.265       4355.9536    
ec    39100  39.1           0.001          295.2464      -928.76175      8.2051724     -3675.4763      4355.9536    
ec    39200  39.2           0.001          308.92606     -928.27547      8.585343      -3508.3354      4355.9536    
ec    39300  39.3           0.001          292.50426     -927.75438      8.1289657     -3464.9512      4355.9536    
ec    39400  39.4           0.001          314.15695     -928.58263      8.7307142     -3467.3093      4355.9536    
ec    39500  39.5           0.001          296.32363     -928.54846      8.2351095     -3617.1279      4355.9536    
ec    39600  39.6           0.001          250.15278     -927.85509      6.9519788     -3846.8805      4355.9536    
ec    39700  39.7           0.001          278.67237     -928.65192      7.7445647     -3933.4299      4355.9536    
ec    39800  39.8           0.001          305.98777     -928.25002      8.5036852     -3581.6723      4355.9536    
ec    39900  39.9           0.001          311.58398     -927.9412       8.6592089     -3524.3434      4355.9536    
ec    40000  40             0.001          306.3592      -927.98984      8.5140075     -3572.6922      4355.9536    
ec    40100  40.1           0.001          310.36073     -928.94647      8.6252137     -3683.4934      4355.9536    
ec    40200  40.2           0.001          288.61303     -928.89224      8.020825      -3777.1308      4355.9536    
ec    40300  40.3           0.001          313.07026     -928.98232      8.7005141     -3497.4494      4355.9536    
ec    40400  40.4           0.001          314.82996     -927.66689      8.7494178     -2999.5591      4355.9536    
ec    40500  40.5           0.001          307.00951     -927.74516      8.5320802     -3318.7017      4355.9536    
ec    40600  40.6           0.001          320.88579     -928.97816      8.917715      -3512.2138      4355.9536    
ec    40700  40.7           0.001          278.00624     -928.22955      7.7260524     -3724.7515      4355.9536    
ec    40800  40.8           0.001          294.93083     -928.52443      8.1964025     -3677.6207      4355.9536    
ec    40900  40.9           0.001          309.35812     -927.65252      8.5973501     -3289.8051      4355.9536    
ec    41000  41             0.001          310.71559     -927.38389      8.6350756     -3320.8505      4355.9536    
ec    41100  41.1           0.001          309.66819     -928.00453      8.6059674     -3523.5923      4355.9536    
ec    41200  41.2           0.001          277.0247      -927.61134      7.6987744     -3475.0342      4355.9536    
ec    41300  41.3           0.001          317.22407     -928.95415      8.8159523     -3583.7001      4355.9536    
ec    41400  41.4           0.001          309.13103     -928.66651      8.5910391     -3575.9666      4355.9536    
ec    41500  41.5           0.001          326.82227     -928.44148      9.0826951     -3296.7084      4355.9536    
ec    41600  41.6           0.001          328.72724     -927.47829      9.135636      -3038.6307      4355.9536    
ec    41700  41.7           0.001          310.63435     -927.57493      8.6328178     -3249.7799      4355.9536    
ec    41800  41.8           0.001          311.30966     -928.49642      8.6515854     -3445.5225      4355.9536    
ec    41900  41.9           0.001          287.578       -928.10532      7.9920605     -3551.6661      4355.9536    
ec    42000  42             0.001          296.48766     -928.37553      8.2396682     -3718.1627      4355.9536    
ec    42100  42.1           0.001          302.5768      -928.09146      8.4088912     -3615.9733      4355.9536    
ec    42200  42.2           0.001          296.80551     -926.95153      8.2485015     -3465.0165      4355.9536    
ec    42300  42.3           0.001          277.22165     -926.52602      7.7042479     -3462.488       4355.9536    
ec    42400  42.4           0.001          302.21985     -928.32855      8.398971      -3673.2922      4355.9536    
ec    42500  42.5           0.001          297.08634     -928.47312      8.2563059     -3741.9702      4355.9536    
ec    42600  42.6           0.001          311.19125     -928.68971      8.6482946     -3481.6705      4355.9536    
ec    42700  42.7           0.001          306.61979     -928.13358      8.5212496     -3376.04        4355.9536    
ec    42800  42.8           0.001          323.72127     -927.94929      8.9965156     -3326.9079      4355.9536    
ec    42900  42.9           0.001          342.24245     -927.92455      9.5112364     -3302.4982      4355.9536    
ec    43000  43             0.001          291.22802     -927.44399      8.0934978     -3479.9808      4355.9536    
ec    43100  43.1           0.001          302.46488     -928.68936      8.4057808     -3673.5888      4355.9536    
ec    43200  43.2           0.001          305.44899     -928.82698      8.4887119     -3708.8442      4355.9536    
ec    43300  43.3           0.001          279.78455     -927.69049      7.7754733     -3576.9213      4355.9536    
ec    43400  43.4           0.001          287.44178     -926.99078      7.9882748     -3384.5189      4355.9536    
ec    43500  43.5           0.001          325.69832     -927.77272      9.0514596     -3409.5201      4355.9536    
ec    43600  43.6           0.001          297.44157     -928.4504       8.2661783     -3430.9912      4355.9536    
ec    43700  43.7           0.001          273.11788     -928.20853      7.5902003     -3667.4251      4355.9536    
ec    43800  43.8           0.001          304.21396     -928.64251      8.4543892     -3612.963       4355.9536    
ec    43900  43.9           0.001          327.35613     -928.51263      9.0975318     -3359.4711      4355.9536    
ec    44000  44             0.001          316.5846      -927.96753      8.7981807     -3426.132       4355.9536    
ec    44100  44.1           0.001          291.02425     -927.88579      8.0878348     -3303.4441      4355.9536    
ec    44200  44.2           0.001          289.37705     -928.96845      8.0420576     -3723.0508      4355.9536    
ec    44300  44.3           0.001          299.04163     -928.99466      8.3106453     -3818.7834      4355.9536    
ec    44400  44.4           0.001          283.21071     -927.77305      7.8706893     -3477.8085      4355.9536    
ec    44500  44.5           0.001          288.06101     -927.52891      8.0054836     -3497.9805      4355.9536    
ec    44600  44.6           0.001          336.11391     -928.87941      9.3409186     -3428.9553      4355.9536    
ec    44700  44.7           0.001          299.99258     -928.29676      8.3370731     -3542.4518      4355.9536    
ec    44800  44.8           0.001          283.04068     -929.12796      7.8659639     -3734.8493      4355.9536    
ec    44900  44.9           0.001          261.9806      -928.78051      7.2806847     -3877.9154      4355.9536    
ec    45000  45             0.001          274.09207     -928.27927      7.6172739     -3726.704       4355.9536    
ec    45100  45.1           0.001          305.41696     -928.43984      8.4878216     -3294.57        4355.9536    
ec    45200  45.2           0.001          286.34334     -927.56822      7.957748      -3528.554       4355.9536    
ec    45300  45.3           0.001          343.07359     -928.99344      9.5343344     -3359.4745      4355.9536    
ec    45400  45.4           0.001          288.72627     -928.03935      8.0239718     -3549.1578      4355.9536    
ec    45500  45.5           0.001          270.8487      -928.49439      7.5271376     -3775.0376      4355.9536    
ec    45600  45.6           0.001          292.38645     -928.95754      8.1256917     -3587.5781      4355.9536    
ec    45700  45.7           0.001          305.2438      -928.3977       8.4830094     -3684.557       4355.9536    
ec    45800  45.8           0.001          331.96094     -928.77767      9.2255036     -3439.7163      4355.9536    
ec    45900  45.9           0.001          268.12623     -927.14926      7.4514775     -3611.2525      4355.9536    
ec    46000  46             0.001          306.39979     -928.55473      8.5151354     -3689.3716      4355.9536    
ec    46100  46.1           0.001          290.67579     -928.74917      8.0781509     -3729.3073      4355.9536    
ec    46200  46.2           0.001          268.40996     -928.84544      7.4593626     -3866.7904      4355.9536    
ec    46300  46.3           0.001          287.34497     -928.92337      7.9855842     -3517.7771      4355.9536    
ec    46400  46.4           0.001          286.52928     -927.73575      7.9629155     -3514.1305      4355.9536    
ec    46500  46.5           0.001          316.13272     -928.28488      8.7856227     -3330.5447      4355.9536    
ec    46600  46.6           0.001          300.5742      -928.03004      8.353237      -3505.6578      4355.9536    
ec    46700  46.7           0.001          281.24437     -928.13843      7.8160428     -3706.5006      4355.9536    
ec    46800  46.8           0.001          281.93663     -928.79491      7.8352815     -3667.7444      4355.9536    
ec    46900  46.9           0.001          278.09024     -928.57119      7.7283867     -3918.9522      4355.9536    
ec    47000  47             0.001          302.64533     -927.89277      8.4107957     -3407.5479      4355.9536    
ec    47100  47.1           0.001          309.76808     -927.82246      8.6087434     -3519.207       4355.9536    
ec    47200  47.2           0.001          313.43202     -928.39444      8.7105676     -3594.7052      4355.9536    
ec    47300  47.3           0.001          296.72449     -928.69431      8.2462498     -3557.061       4355.9536    
ec    47400  47.4           0.001          280.31897     -928.552        7.7903253     -3864.3088      4355.9536    
ec    47500  47.5           0.001          302.04027     -928.06369      8.3939804     -3302.5292      4355.9536    
ec    47600  47.6           0.001          312.73533     -927.50799      8.6912059     -3384.6841      4355.9536    
ec    47700  47.7           0.001          315.22924     -928.09603      8.7605141     -3400.5496      4355.9536    
ec    47800  47.8           0.001          279.91829     -927.93329      7.7791898     -3526.5672      4355.9536    
ec    47900  47.9           0.001          284.54034     -928.35981      7.9076409     -3723.0123      4355.9536    
ec    48000  48             0.001          316.70897     -928.90928      8.8016371     -3614.9392      4355.9536    
ec    48100  48.1           0.001          290.81785     -926.8478       8.0820988     -3444.2301      4355.9536    
ec    48200  48.2           0.001          330.80921     -927.7536       9.1934959     -3102.2282      4355.9536    
ec    48300  48.3           0.001          314.19105     -928.02683      8.7316617     -3445.9357      4355.9536    
ec    48400  48.4           0.001          283.62981     -927.8579       7.8823366     -3519.4497      4355.9536    
ec    48500  48.5           0.001          318.9476      -929.06446      8.8638507     -3478.7657      4355.9536    
ec    48600  48.6           0.001          295.05921     -928.37081      8.1999702     -3825.7296      4355.9536    
ec    48700  48.7           0.001          330.29924     -928.22562      9.1793235     -3372.0057      4355.9536    
ec    48800  48.8           0.001          309.02454     -927.03168      8.5880798     -3207.9884      4355.9536    
ec    48900  48.9           0.001          304.77929     -927.71415      8.4701002     -3314.9417      4355.9536    
ec    49000  49             0.001          324.9058      -928.88301      9.0294346     -3545.4781      4355.9536    
ec    49100  49.1           0.001          302.93939     -928.47906      8.4189678     -3637.3293      4355.9536    
ec    49200  49.2           0.001          303.33419     -928.45407      8.4299395     -3427.1174      4355.9536    
ec    49300  49.3           0.001          294.96163     -927.8602       8.1972583     -3450.5968      4355.9536    
ec    49400  49.4           0.001          338.74958     -928.18088      9.4141662     -3210.3524      4355.9536    
ec    49500  49.5           0.001          298.25111     -927.12328      8.288676      -3233.213       4355.9536    
ec    49600  49.6           0.001          280.40704     -927.85477      7.7927729     -3616.9605      4355.9536    
ec    49700  49.7           0.001          301.10682     -928.72144      8.3680389     -3639.2865      4355.9536    
ec    49800  49.8           0.001          304.45028     -928.6339       8.4609567     -3763.2057      4355.9536    
ec    49900  49.9           0.001          302.86142     -927.91435      8.416801      -3319.0378      4355.9536    
ec    50000  50             0.001          315.60843     -927.46497      8.7710521     -3362.9444      4355.9536    
ec    50100  50.1           0.001          332.76117     -927.40915      9.2477429     -3317.5253      4355.9536    
ec    50200  50.2           0.001          319.20309     -928.14907      8.870951      -3451.3631      4355.9536    
ec    50300  50.3           0.001          287.54283     -928.20346      7.9910831     -3676.7062      4355.9536    
ec    50400  50.4           0.001          281.77628     -928.22954      7.8308252     -3565.367       4355.9536    
ec    50500  50.5           0.001          304.94483     -928.56737      8.4747009     -3633.3896      4355.9536    
ec    50600  50.6           0.001          290.00475     -927.31177      8.059502      -3515.3952      4355.9536    
ec    50700  50.7           0.001          319.97026     -927.71947      8.8922715     -3392.3806      4355.9536    
ec    50800  50.8           0.001          293.50336     -928.01126      8.1567318     -3540.1751      4355.9536    
ec    50900  50.9           0.001          285.65214     -928.62472      7.9385388     -3725.2603      4355.9536    
ec    51000  51             0.001          276.4634      -928.12453      7.6831752     -3750.1997      4355.9536    
ec    51100  51.1           0.001          311.47604     -928.30432      8.6562092     -3613.2554      4355.9536    
ec    51200  51.2           0.001          306.39887     -927.7518       8.51511       -3637.5582      4355.9536    
ec    51300  51.3           0.001          275.50338     -927.19849      7.6564955     -3434.3361      4355.9536    
ec    51400  51.4           0.001          307.1831      -929.4839       8.5369043     -3725.1069      4355.9536    
ec    51500  51.5           0.001          288.73103     -928.99935      8.0241043     -3895.6251      4355.9536    
ec    51600  51.6           0.001          305.68285     -928.69181      8.495211      -3697.5965      4355.9536    
ec    51700  51.7           0.001          305.60811     -928.08265      8.4931341     -3425.1972      4355.9536    
ec    51800  51.8           0.001          293.08123     -927.64155      8.1450002     -3489.793       4355.9536    
ec    51900  51.9           0.001          334.41388     -929.10891      9.2936733     -3560.3052      4355.9536    
ec    52000  52             0.001          283.45895     -928.99216      7.8775883     -3769.5065      4355.9536    
ec    52100  52.1           0.001          264.24594     -928.5306       7.3436408     -3832.4435      4355.9536    
ec    52200  52.2           0.001          272.15752     -927.9904       7.563511      -3689.3267      4355.9536    
ec    52300  52.3           0.001          289.4193      -927.96681      8.0432318     -3626.0666      4355.9536    
ec    52400  52.4           0.001          297.88018     -927.96189      8.2783677     -3673.2552      4355.9536    
ec    52500  52.5           0.001          295.65684     -927.8872       8.2165788     -3487.26        4355.9536    
ec    52600  52.6           0.001          307.82228     -928.74196      8.5546677     -3558.1788      4355.9536    
ec    52700  52.7           0.001          284.54391     -928.89009      7.9077403     -3696.2868      4355.9536    
ec    52800  52.8           0.001          303.76429     -929.20144      8.4418925     -3697.8753      4355.9536    
ec    52900  52.9           0.001          309.35703     -928.26886      8.5973199     -3469.8894      4355.9536    
ec    53000  53             0.001          322.56135     -928.39277      8.9642804     -3447.7819      4355.9536    
ec    53100  53.1           0.001          302.86436     -928.06483      8.4168826     -3566.2224      4355.9536    
ec    53200  53.2           0.001          293.16758     -928.38407      8.1473999     -3611.8199      4355.9536    
ec    53300  53.3           0.001          273.18175     -928.63831      7.5919752     -3890.3992      4355.9536    
ec    53400  53.4           0.001          264.46612     -929.00715      7.3497599     -4035.5952      4355.9536    
ec    53500  53.5           0.001          272.17265     -928.3106       7.5639315     -3786.0586      4355.9536    
ec    53600  53.6           0.001          292.42674     -927.8822       8.1268114     -3621.3172      4355.9536    
ec    53700  53.7           0.001          318.56089     -928.30246      8.8531038     -3439.2071      4355.9536    
ec    53800  53.8           0.001          300.62816     -927.88483      8.3547365     -3694.9679      4355.9536    
ec    53900  53.9           0.001          292.70005     -928.30032      8.1344068     -3553.3005      4355.9536    
ec    54000  54             0.001          280.4493      -928.63439      7.7939471     -3746.4499      4355.9536    
ec    54100  54.1           0.001          284.39024     -928.64658      7.9034697     -3767.9631      4355.9536    
ec    54200  54.2           0.001          337.00829     -928.68125      9.3657741     -3330.4923      4355.9536    
ec    54300  54.3           0.001          316.62994     -927.92348      8.7994408     -3453.6691      4355.9536    
ec    54400  54.4           0.001          290.59571     -927.79797      8.0759253     -3547.0562      4355.9536    
ec    54500  54.5           0.001          301.22102     -928.77535      8.3712127     -3693.6438      4355.9536    
ec    54600  54.6           0.001          280.19015     -928.32932      7.7867452     -3690.1209      4355.9536    
ec    54700  54.7           0.001          301.65367     -927.91061      8.3832364     -3702.1439      4355.9536    
ec    54800  54.8           0.001          321.87272     -927.54704      8.9451425     -3475.38        4355.9536    
ec    54900  54.9           0.001          318.1814      -928.10857      8.8425573     -3539.8859      4355.9536    
ec    55000  55             0.001          279.64681     -927.8978       7.7716452     -3727.725       4355.9536    
ec    55100  55.1           0.001          280.22747     -928.16627      7.7877823     -3614.8595      4355.9536    
ec    55200  55.2           0.001          312.1263      -928.78446      8.6742805     -3509.8789      4355.9536    
ec    55300  55.3           0.001          317.4662      -927.70682      8.8226812     -3429.1189      4355.9536    
ec    55400  55.4           0.001          324.0216      -927.56517      9.004862      -3118.7242      4355.9536    
ec    55500  55.5           0.001          300.01537     -927.5558       8.3377066     -3332.6308      4355.9536    
ec    55600  55.6           0.001          306.832       -928.30264      8.527147      -3549.7559      4355.9536    
ec    55700  55.7           0.001          303.11484     -928.50428      8.4238438     -3679.649       4355.9536    
ec    55800  55.8           0.001          281.95971     -928.02847      7.8359228     -3729.6815      4355.9536    
ec    55900  55.9           0.001          307.93932     -928.40733      8.5579203     -3675.465       4355.9536    
ec    56000  56             0.001          314.37305     -927.69312      8.7367198     -3549.1015      4355.9536    
ec    56100  56.1           0.001          327.38872     -928.0365       9.0984374     -3354.0721      4355.9536    
ec    56200  56.2           0.001          293.71335     -928.1366       8.1625675     -3539.0889      4355.9536    
ec    56300  56.3           0.001          274.61296     -928.06984      7.63175       -3556.882       4355.9536    
ec    56400  56.4           0.001          314.47134     -928.99933      8.7394514     -3469.4758      4355.9536    
ec    56500  56.5           0.001          296.92576     -928.01272      8.2518434     -3379.1386      4355.9536    
ec    56600  56.6           0.001          322.0465      -928.0587       8.9499721     -3247.4175      4355.9536    
ec    56700  56.7           0.001          329.999       -926.93601      9.1709795     -3116.5086      4355.9536    
ec    56800  56.8           0.001          342.993       -927.67022      9.5320948     -3207.8559      4355.9536    
ec    56900  56.9           0.001          296.06608     -927.48276      8.2279521     -3526.3499      4355.9536    
ec    57000  57             0.001          275.66599     -927.44265      7.6610147     -3523.6058      4355.9536    
ec    57100  57.1           0.001          316.91827     -929.12723      8.8074538     -3734.4892      4355.9536    
ec    57200  57.2           0.001          302.02969     -928.88938      8.3936862     -3749.9024      4355.9536    
ec    57300  57.3           0.001          291.8742      -928.0796       8.1114558     -3521.1599      4355.9536    
ec    57400  57.4           0.001          311.60454     -927.60146      8.6597804     -3346.785       4355.9536    
ec    57500  57.5           0.001          335.50127     -928.33795      9.3238928     -3353.8969      4355.9536    
ec    57600  57.6           0.001          318.61716     -928.67955      8.8546676     -3573.8357      4355.9536    
ec    57700  57.7           0.001          287.17787     -928.10889      7.9809405     -3481.4335      4355.9536    
ec    57800  57.8           0.001          289.83335     -928.12885      8.0547387     -3528.414       4355.9536    
ec    57900  57.9           0.001          307.61856     -928.37712      8.5490063     -3758.0054      4355.9536    
ec    58000  58             0.001          304.20603     -927.74573      8.4541689     -3332.7134      4355.9536    
ec    58100  58.1           0.001          304.29301     -926.92577      8.456586      -3269.6405      4355.9536    
ec    58200  58.2           0.001          327.29355     -927.84292      9.0957925     -3385.7095      4355.9536    
ec    58300  58.3           0.001          302.44907     -928.45164      8.4053414     -3651.5472      4355.9536    
ec    58400  58.4           0.001          279.12943     -928.03477      7.7572668     -3634.7486      4355.9536    
ec    58500  58.5           0.001          283.81038     -928.01148      7.8873547     -3764.2851      4355.9536    
ec    58600  58.6           0.001          299.48546     -927.76514      8.3229798     -3565.4273      4355.9536    
ec    58700  58.7           0.001          349.03876     -928.32781      9.7001123     -3318.9003      4355.9536    
ec    58800  58.8           0.001          311.04624     -927.58321      8.6442646     -3406.3315      4355.9536    
ec    58900  58.9           0.001          287.85616     -928.32854      7.9997906     -3716.322       4355.9536    
ec    59000  59             0.001          293.36372     -928.62404      8.1528509     -3715.397       4355.9536    
ec    59100  59.1           0.001          281.95723     -927.83935      7.8358541     -3658.286       4355.9536    
ec    59200  59.2           0.001          329.87344     -928.38003      9.1674901     -3399.7519      4355.9536    
ec    59300  59.3           0.001          327.55327     -928.11175      9.1030104     -3435.043       4355.9536    
ec    59400  59.4           0.001          274.83768     -927.92995      7.6379951     -3624.7521      4355.9536    
ec    59500  59.5           0.001          258.62548     -928.05753      7.1874428     -3750.6044      4355.9536    
ec    59600  59.6           0.001          285.12962     -928.29311      7.9240177     -3744.0073      4355.9536    
ec    59700  59.7           0.001          313.01586     -928.25083      8.6990021     -3619.4268      4355.9536    
ec    59800  59.8           0.001          305.54725     -927.80251      8.4914427     -3504.3661      4355.9536    
ec    59900  59.9           0.001          316.57613     -928.42469      8.7979454     -3507.0291      4355.9536    
Fix halt condition for fix-id myhalt met on step 60000 with value 60 (../fix_halt.cpp:240)
ec    60000  60             0.001          294.10359     -929.04211      8.1734127     -3851.116       4355.9536    
Loop time of 3.30289 on 2 procs for 30000 steps with 216 atoms

Performance: 784.767 ns/day, 0.031 hours/ns, 9082.947 timesteps/s, 1.962 Matom-step/s
96.3% CPU use with 2 MPI tasks x no OpenMP threads

MPI task timing breakdown:
Section |  min time  |  avg time  |  max time  |%varavg| %total
---------------------------------------------------------------
Pair    | 2.5495     | 2.703      | 2.8565     |   9.3 | 81.84
Neigh   | 0          | 0          | 0          |   0.0 |  0.00
Comm    | 0.33989    | 0.49206    | 0.64423    |  21.7 | 14.90
Output  | 0.0034327  | 0.0058911  | 0.0083495  |   3.2 |  0.18
Modify  | 0.062134   | 0.063898   | 0.065662   |   0.7 |  1.93
Other   |            | 0.03805    |            |       |  1.15

Nlocal:            108 ave         114 max         102 min
Histogram: 1 0 0 0 0 0 0 0 0 1
Nghost:            726 ave         732 max         720 min
Histogram: 1 0 0 0 0 0 0 0 0 1
Neighs:              0 ave           0 max           0 min
Histogram: 2 0 0 0 0 0 0 0 0 0
FullNghs:         3706 ave        3921 max        3491 min
Histogram: 1 0 0 0 0 0 0 0 0 1

Total # of neighbors = 7412
Ave neighs/atom = 34.314815
Neighbor list builds = 0
Dangerous builds = 0

write_data cell.data_${temp}
write_data cell.data_300
System init for write_data ...
Total wall time: 0:00:06
