

units metal
timestep 0.001
boundary p p p

lattice         diamond 5.43
Lattice spacing in x,y,z = 5.43 5.43 5.43
region          box block 0 ${N} 0 ${N} 0 ${N}
region          box block 0 2 0 ${N} 0 ${N}
region          box block 0 2 0 2 0 ${N}
region          box block 0 2 0 2 0 2
create_box      1 box
Created orthogonal box = (0 0 0) to (10.86 10.86 10.86)
  1 by 1 by 2 MPI processor grid
create_atoms    1 box
Created 64 atoms
  using lattice units in orthogonal box = (0 0 0) to (10.86 10.86 10.86)
  create_atoms CPU = 0.001 seconds

timestep ${dt}
timestep 0.0001

mass 1 28.0855
labelmap atom 1 Si

pair_style sw
pair_coeff * * Si.sw Si
Reading sw potential file Si.sw with DATE: 2007-06-11


velocity all create ${temp} 4928459 mom yes rot yes dist gaussian
velocity all create 300 4928459 mom yes rot yes dist gaussian

variable t equal time
#fix myhalt all halt 100 v_t >= 30.0 error continue

#fix NVE all nve

#run 10000000

#unfix myhalt

compute 1 all vacf

thermo 100
thermo_style	custom step time dt temp pe ke press vol #c_1[4]
thermo_modify	line one flush yes format 1 "ec %8lu" flush yes


fix NPT all npt temp ${temp} ${temp} ${tau_T} iso 0.0 0.0 1.0
fix NPT all npt temp 300 ${temp} ${tau_T} iso 0.0 0.0 1.0
fix NPT all npt temp 300 300 ${tau_T} iso 0.0 0.0 1.0
fix NPT all npt temp 300 300 0.1 iso 0.0 0.0 1.0

fix myhalt all halt 100 v_t >= 30.0 error continue

run 10000000

CITE-CITE-CITE-CITE-CITE-CITE-CITE-CITE-CITE-CITE-CITE-CITE-CITE

Your simulation uses code contributions which should be cited:

- Type Label Framework: https://doi.org/10.1021/acs.jpcb.3c08419

@Article{Gissinger24,
 author = {Jacob R. Gissinger, Ilia Nikiforov, Yaser Afshar, Brendon Waters, Moon-ki Choi, Daniel S. Karls, Alexander Stukowski, Wonpil Im, Hendrik Heinz, Axel Kohlmeyer, and Ellad B. Tadmor},
 title = {Type Label Framework for Bonded Force Fields in LAMMPS},
 journal = {J. Phys. Chem. B},
 year =    2024,
 volume =  128,
 number =  13,
 pages =   {3282--3297}
}

CITE-CITE-CITE-CITE-CITE-CITE-CITE-CITE-CITE-CITE-CITE-CITE-CITE

Neighbor list info ...
  update: every = 1 steps, delay = 0 steps, check = yes
  max neighbors/atom: 2000, page size: 100000
  master list distance cutoff = 5.77118
  ghost atom cutoff = 5.77118
  binsize = 2.88559, bins = 4 4 4
  1 neighbor lists, perpetual/occasional/extra = 1 0 0
  (1) pair sw, perpetual
      attributes: full, newton on
      pair build: full/bin/atomonly
      stencil: full/bin/3d
      bin: standard
Per MPI rank memory allocation (min/avg/max) = 3.57 | 3.57 | 3.57 Mbytes
   Step          Time            Dt            Temp          PotEng         KinEng         Press          Volume    
ec        0  0              0.0001         300           -277.54229      2.4430167      2569.8731      1280.8241    
ec      100  0.01           0.0001         165.53141     -276.44615      1.3479867      2698.3943      1281.065     
ec      200  0.02           0.0001         91.961276     -275.84058      0.74887645     1966.1036      1281.7885    
ec      300  0.03           0.0001         172.19609     -276.4693       1.4022598      405.09231      1282.8605    
ec      400  0.04           0.0001         116.35542     -275.97455      0.94752749    -470.02592      1284.0241    
ec      500  0.05           0.0001         97.610058     -275.78968      0.79487669    -1203.1104      1285.1067    
ec      600  0.06           0.0001         186.37036     -276.45361      1.5176864     -2040.8891      1285.9682    
ec      700  0.07           0.0001         156.5853      -276.14067      1.275135      -2113.7537      1286.4713    
ec      800  0.08           0.0001         144.43799     -275.99407      1.1762148     -1957.6441      1286.5911    
ec      900  0.09           0.0001         218.73705     -276.54254      1.7812609     -1825.8491      1286.351     
ec     1000  0.1            0.0001         155.84927     -275.97871      1.2691413     -952.34723      1285.7916    
ec     1100  0.11           0.0001         151.2691      -275.90558      1.2318431     -203.20709      1285.057     
ec     1200  0.12           0.0001         257.91517     -276.71597      2.1003036      149.54459      1284.2801    
ec     1300  0.13           0.0001         199.05703     -276.1732       1.6209988      1028.9115      1283.5453    
ec     1400  0.14           0.0001         152.26746     -275.74764      1.2399732      1502.6833      1282.9963    
ec     1500  0.15           0.0001         232.127       -276.33771      1.8903005      1098.3146      1282.71      
ec     1600  0.16           0.0001         186.04926     -275.89265      1.5150715      1057.3523      1282.6369    
ec     1700  0.17           0.0001         136.08322     -275.43565      1.1081786      1009.5341      1282.7611    
ec     1800  0.18           0.0001         171.10283     -275.66323      1.393357       577.57513      1283.0661    
ec     1900  0.19           0.0001         135.2636      -275.31068      1.1015041      620.48143      1283.4899    
ec     2000  0.2            0.0001         197.56536     -275.75758      1.6088516      682.63511      1284.0317    
ec     2100  0.21           0.0001         335.43692     -276.77515      2.7315934      341.17743      1284.6968    
ec     2200  0.22           0.0001         261.98802     -276.07785      2.1334704      170.28649      1285.4369    
ec     2300  0.23           0.0001         211.39104     -275.6019       1.7214395     -419.83686      1286.2083    
ec     2400  0.24           0.0001         272.55429     -276.02688      2.2195156     -1377.3595      1286.9018    
ec     2500  0.25           0.0001         198.763       -275.35455      1.6186044     -1655.4657      1287.3601    
ec     2600  0.26           0.0001         171.18691     -275.07771      1.3940416     -1799.1341      1287.5194    
ec     2700  0.27           0.0001         284.84076     -275.92536      2.3195691     -2116.6004      1287.3453    
ec     2800  0.28           0.0001         242.73658     -275.49307      1.9766984     -1488.8948      1286.8016    
ec     2900  0.29           0.0001         190.97367     -275.00753      1.5551729     -538.20772      1285.9913    
ec     3000  0.3            0.0001         263.39508     -275.52136      2.1449286      23.217346      1285.0761    
ec     3100  0.31           0.0001         236.92851     -275.22136      1.929401       973.80746      1284.1754    
ec     3200  0.32           0.0001         233.21804     -275.11918      1.8991852      1949.1728      1283.4571    
ec     3300  0.33           0.0001         343.5949      -275.92647      2.7980269      2310.2508      1283.089     
ec     3400  0.34           0.0001         321.07611     -275.64975      2.6146477      2440.8253      1283.1482    
ec     3500  0.35           0.0001         273.11993     -275.19197      2.2241219      2067.2788      1283.6544    
ec     3600  0.36           0.0001         302.34968     -275.36453      2.4621511      1235.4642      1284.5408    
ec     3700  0.37           0.0001         284.13612     -275.15241      2.313831       386.3327       1285.6658    
ec     3800  0.38           0.0001         303.12122     -275.24527      2.468434      -838.8172       1286.8657    
ec     3900  0.39           0.0001         294.41987     -275.1108       2.3975756     -1852.8449      1287.9252    
ec     4000  0.4            0.0001         186.62149     -274.18325      1.5197314     -2091.7063      1288.6655    
ec     4100  0.41           0.0001         254.84354     -274.6892       2.0752901     -2419.2318      1289.0225    
ec     4200  0.42           0.0001         392.86651     -275.7271       3.1992649     -2549.2677      1288.9393    
ec     4300  0.43           0.0001         292.49151     -274.83707      2.3818722     -1446.9361      1288.4121    
ec     4400  0.44           0.0001         292.90244     -274.78834      2.3852185     -425.75448      1287.6181    
ec     4500  0.45           0.0001         407.76699     -275.6581       3.3206053      92.315394      1286.739     
ec     4600  0.46           0.0001         312.78111     -274.83466      2.5470983      948.90399      1285.8882    
ec     4700  0.47           0.0001         287.16704     -274.59286      2.338513       1406.1325      1285.2088    
ec     4800  0.48           0.0001         407.52182     -275.53227      3.3186088      1238.8862      1284.7803    
ec     4900  0.49           0.0001         319.21739     -274.78702      2.5995114      1439.3416      1284.594     
ec     5000  0.5            0.0001         275.2552      -274.41402      2.2415102      1137.9355      1284.6693    
ec     5100  0.51           0.0001         346.19198     -274.97234      2.819176       607.49024      1284.9556    
ec     5200  0.52           0.0001         234.41521     -274.04792      1.9089343      1057.216       1285.3803    
ec     5300  0.53           0.0001         263.93381     -274.27187      2.1493157      1016.7867      1285.9992    
ec     5400  0.54           0.0001         482.02387     -276.01579      3.9253079     -95.520949      1286.7957    
ec     5500  0.55           0.0001         378.61931     -275.16998      3.0832444     -476.83432      1287.603     
ec     5600  0.56           0.0001         232.09945     -273.98664      1.8900762     -835.02441      1288.3346    
ec     5700  0.57           0.0001         345.36141     -274.91198      2.8124123     -1867.3612      1288.9078    
ec     5800  0.58           0.0001         364.99744     -275.08365      2.9723162     -2055.9535      1289.1595    
ec     5900  0.59           0.0001         308.51476     -274.64471      2.5123558     -1512.6574      1289.0505    
ec     6000  0.6            0.0001         371.86648     -275.18743      3.0282535     -1285.2281      1288.6589    
ec     6100  0.61           0.0001         336.59911     -274.94126      2.7410575     -827.89071      1288.0388    
ec     6200  0.62           0.0001         320.62701     -274.8547       2.6109905     -566.83466      1287.264     
ec     6300  0.63           0.0001         331.49888     -274.99314      2.6995243     -365.44783      1286.3843    
ec     6400  0.64           0.0001         243.15448     -274.32044      1.9801016      464.13615      1285.4492    
ec     6500  0.65           0.0001         261.10686     -274.49729      2.1262948      1196.0515      1284.597     
ec     6600  0.66           0.0001         390.19101     -275.58766      3.1774773      1533.208       1283.957     
ec     6700  0.67           0.0001         292.55371     -274.84722      2.3823787      2558.0114      1283.6162    
ec     6800  0.68           0.0001         247.92266     -274.52124      2.0189307      2894.2979      1283.7389    
ec     6900  0.69           0.0001         397.58079     -275.78391      3.2376551      1689.1971      1284.3745    
ec     7000  0.7            0.0001         359.13883     -275.53999      2.9246073      677.73514      1285.3403    
ec     7100  0.71           0.0001         266.06439     -274.84226      2.1666658     -184.01959      1286.4493    
ec     7200  0.72           0.0001         290.32117     -275.08917      2.3641983     -1341.4952      1287.533     
ec     7300  0.73           0.0001         240.42804     -274.72727      1.957899      -1895.5711      1288.3939    
ec     7400  0.74           0.0001         242.21009     -274.77032      1.972411      -2053.2372      1288.9218    
ec     7500  0.75           0.0001         379.79786     -275.9228       3.0928418     -2382.9958      1289.073     
ec     7600  0.76           0.0001         328.62391     -275.55644      2.6761124     -2104.4077      1288.8005    
ec     7700  0.77           0.0001         219.76552     -274.70824      1.7896362     -1663.3773      1288.1436    
ec     7800  0.78           0.0001         278.75165     -275.21539      2.2699831     -1539.6934      1287.1699    
ec     7900  0.79           0.0001         249.86795     -275.00563      2.0347719     -503.67237      1285.9244    
ec     8000  0.8            0.0001         198.57918     -274.60043      1.6171075      1093.2535      1284.5895    
ec     8100  0.81           0.0001         322.70073     -275.61313      2.6278776      2072.1436      1283.4379    
ec     8200  0.82           0.0001         377.96991     -276.0704       3.077956       2872.0865      1282.6624    
ec     8300  0.83           0.0001         290.2124      -275.37433      2.3633125      3366.883       1282.4123    
ec     8400  0.84           0.0001         290.48655     -275.39397      2.365545       2597.2349      1282.7639    
ec     8500  0.85           0.0001         262.15585     -275.17951      2.1348371      1537.4719      1283.5999    
ec     8600  0.86           0.0001         228.355       -274.91309      1.8595836      682.25723      1284.7386    
ec     8700  0.87           0.0001         283.84691     -275.36509      2.3114758     -452.13599      1286.0152    
ec     8800  0.88           0.0001         256.43661     -275.13746      2.0882631     -1326.0463      1287.2328    
ec     8900  0.89           0.0001         223.49757     -274.85944      1.8200277     -1924.6818      1288.2282    
ec     9000  0.9            0.0001         296.10305     -275.42986      2.4112824     -2530.2822      1288.8804    
ec     9100  0.91           0.0001         314.29485     -275.55038      2.5594252     -2554.5004      1289.0847    
ec     9200  0.92           0.0001         279.68957     -275.24364      2.277621      -2152.6547      1288.8289    
ec     9300  0.93           0.0001         302.94911     -275.40543      2.4670325     -1827.5013      1288.1723    
ec     9400  0.94           0.0001         260.37116     -275.02887      2.1203037     -823.28619      1287.1862    
ec     9500  0.95           0.0001         235.95544     -274.79921      1.9214769      586.46986      1286.0491    
ec     9600  0.96           0.0001         366.08133     -275.80912      2.9811427      1124.1224      1284.9968    
ec     9700  0.97           0.0001         367.8894      -275.76851      2.9958665      1468.6994      1284.1449    
ec     9800  0.98           0.0001         254.72587     -274.81131      2.0743319      1994.9632      1283.5657    
ec     9900  0.99           0.0001         281.2916      -274.99297      2.290667       1866.568       1283.3415    
ec    10000  1              0.0001         283.46312     -274.96654      2.3083505      1523.851       1283.4611    
ec    10100  1.01           0.0001         181.27432     -274.09705      1.4761873      1609.3384      1283.8776    
ec    10200  1.02           0.0001         255.5233      -274.65746      2.0808257      1277.1468      1284.5935    
ec    10300  1.03           0.0001         393.16905     -275.69946      3.2017286      572.20729      1285.5549    
ec    10400  1.04           0.0001         376.19902     -275.48738      3.063535       74.647041      1286.6481    
ec    10500  1.05           0.0001         328.02737     -275.04746      2.6712545     -587.13679      1287.7757    
ec    10600  1.06           0.0001         329.62284     -275.02382      2.684247      -1442.3586      1288.8136    
ec    10700  1.07           0.0001         330.16079     -274.99869      2.6886278     -2055.1742      1289.6093    
ec    10800  1.08           0.0001         352.95119     -275.16191      2.8742189     -2580.212       1290.0406    
ec    10900  1.09           0.0001         332.30787     -274.98192      2.7061123     -2786.195       1290.0083    
ec    11000  1.1            0.0001         253.28559     -274.33395      2.0626031     -2428.2068      1289.471     
ec    11100  1.11           0.0001         252.67312     -274.32101      2.0576156     -1863.6681      1288.4811    
ec    11200  1.12           0.0001         326.05676     -274.90317      2.6552071     -1212.6215      1287.1352    
ec    11300  1.13           0.0001         350.36954     -275.08667      2.8531955      160.17322      1285.563     
ec    11400  1.14           0.0001         302.29075     -274.68775      2.4616712      2136.2357      1284.0143    
ec    11500  1.15           0.0001         294.60457     -274.61862      2.3990796      3579.3948      1282.8351    
ec    11600  1.16           0.0001         375.68998     -275.27349      3.0593897      3880.1453      1282.2859    
ec    11700  1.17           0.0001         371.14809     -275.246        3.0224033      3787.6514      1282.447     
ec    11800  1.18           0.0001         309.79561     -274.76788      2.5227862      3204.2958      1283.3111    
ec    11900  1.19           0.0001         375.7567      -275.33092      3.0599331      1542.553       1284.7721    
ec    12000  1.2            0.0001         408.36164     -275.6423       3.3254478     -387.33652      1286.5493    
ec    12100  1.21           0.0001         267.46487     -274.54891      2.1780705     -1778.3864      1288.3046    
ec    12200  1.22           0.0001         192.24911     -273.9659       1.5655593     -2902.8962      1289.7701    
ec    12300  1.23           0.0001         264.40261     -274.57213      2.1531333     -3794.0304      1290.7266    
ec    12400  1.24           0.0001         313.68477     -274.99404      2.5544571     -3932.3161      1291.0079    
ec    12500  1.25           0.0001         317.57853     -275.05115      2.5861656     -3506.0375      1290.5718    
ec    12600  1.26           0.0001         309.46483     -275.01427      2.5200926     -2437.5065      1289.4882    
ec    12700  1.27           0.0001         302.53596     -274.98726      2.4636681     -836.46259      1287.9452    
ec    12800  1.28           0.0001         348.96518     -275.39667      2.8417593      710.6803       1286.2241    
ec    12900  1.29           0.0001         390.56405     -275.78166      3.1805151      2022.4132      1284.6082    
ec    13000  1.3            0.0001         324.72036     -275.30634      2.6443242      2952.2885      1283.3411    
ec    13100  1.31           0.0001         278.96074     -274.98829      2.2716859      2888.5123      1282.5877    
ec    13200  1.32           0.0001         278.77633     -275.03812      2.2701841      2309.3414      1282.3517    
ec    13300  1.33           0.0001         225.39512     -274.64592      1.8354802      2133.5991      1282.5524    
ec    13400  1.34           0.0001         237.96732     -274.77721      1.9378605      1697.1575      1283.1514    
ec    13500  1.35           0.0001         289.75512     -275.22388      2.3595887      957.44085      1284.077     
ec    13600  1.36           0.0001         285.71356     -275.2146       2.3266767      443.88784      1285.2094    
ec    13700  1.37           0.0001         276.26883     -275.15665      2.2497646     -51.618037      1286.4543    
ec    13800  1.38           0.0001         297.71953     -275.34628      2.424446      -892.08484      1287.7152    
ec    13900  1.39           0.0001         280.46651     -275.21833      2.2839479     -1733.0721      1288.8428    
ec    14000  1.4            0.0001         306.91458     -275.44236      2.4993249     -2482.4252      1289.6775    
ec    14100  1.41           0.0001         376.74419     -276.02338      3.0679745     -3030.3201      1290.0736    
ec    14200  1.42           0.0001         305.81949     -275.46861      2.4904071     -2833.5097      1289.9303    
ec    14300  1.43           0.0001         219.53668     -274.78117      1.7877726     -2367.6435      1289.2635    
ec    14400  1.44           0.0001         254.88519     -275.07291      2.0756293     -2079.5293      1288.1404    
ec    14500  1.45           0.0001         254.59667     -275.06827      2.0732797     -1223.0826      1286.6212    
ec    14600  1.46           0.0001         228.71833     -274.85028      1.8625423      132.0202       1284.8566    
ec    14700  1.47           0.0001         270.32602     -275.17509      2.2013699      1476.585       1283.0842    
ec    14800  1.48           0.0001         268.87208     -275.14617      2.18953        3140.5129      1281.5603    
ec    14900  1.49           0.0001         250.46901     -274.97956      2.0396666      4719.848       1280.5901    
ec    15000  1.5            0.0001         336.84081     -275.66412      2.7430258      5126.1395      1280.4564    
ec    15100  1.51           0.0001         386.84181     -276.06027      3.1502034      4445.7893      1281.2564    
ec    15200  1.52           0.0001         311.04024     -275.4489       2.5329217      3143.2224      1282.896     
ec    15300  1.53           0.0001         257.20396     -275.01701      2.0945119      1041.7993      1285.151     
ec    15400  1.54           0.0001         280.89351     -275.2076       2.2874252     -1638.1177      1287.6491    
ec    15500  1.55           0.0001         254.3918      -274.98259      2.0716115     -3653.8233      1289.9174    
ec    15600  1.56           0.0001         219.16793     -274.6813       1.7847697     -4650.7392      1291.5756    
ec    15700  1.57           0.0001         280.30901     -275.15634      2.2826653     -5174.4596      1292.4088    
ec    15800  1.58           0.0001         328.1944      -275.51726      2.6726148     -5137.1912      1292.3009    
ec    15900  1.59           0.0001         250.22285     -274.86009      2.037662      -4202.7926      1291.2458    
ec    16000  1.6            0.0001         221.32473     -274.60433      1.8023334     -2690.7511      1289.3933    
ec    16100  1.61           0.0001         329.55626     -275.44827      2.6837049     -671.81513      1287.0122    
ec    16200  1.62           0.0001         370.41848     -275.7317       3.0164619      1776.5445      1284.4718    
ec    16300  1.63           0.0001         333.4963      -275.39184      2.7157901      3806.6901      1282.2107    
ec    16400  1.64           0.0001         327.57811     -275.31308      2.667596       4958.8588      1280.6005    
ec    16500  1.65           0.0001         291.64514     -274.99714      2.3749799      5517.9579      1279.871     
ec    16600  1.66           0.0001         271.16919     -274.81172      2.2082363      4987.3514      1280.1326    
ec    16700  1.67           0.0001         310.92149     -275.11381      2.5319547      3341.5844      1281.3077    
ec    16800  1.68           0.0001         275.70251     -274.80438      2.2451528      1744.3295      1283.1361    
ec    16900  1.69           0.0001         228.92652     -274.40051      1.8642377      257.66606      1285.3377    
ec    17000  1.7            0.0001         301.63638     -274.95681      2.4563424     -1401.6505      1287.6386    
ec    17100  1.71           0.0001         327.27972     -275.11774      2.6651661     -2462.8212      1289.7464    
ec    17200  1.72           0.0001         289.27441     -274.76609      2.355674      -3155.8633      1291.4527    
ec    17300  1.73           0.0001         375.01234     -275.41999      3.0538714     -4278.9309      1292.6005    
ec    17400  1.74           0.0001         414.87291     -275.70601      3.3784716     -4839.6355      1292.9849    
ec    17500  1.75           0.0001         311.8754      -274.85451      2.5397228     -4333.8478      1292.4927    
ec    17600  1.76           0.0001         280.90358     -274.59759      2.2875071     -3472.8726      1291.1863    
ec    17700  1.77           0.0001         297.99107     -274.72943      2.4266573     -1995.3812      1289.2201    
ec    17800  1.78           0.0001         319.16722     -274.89143      2.5991028     -211.90726      1286.8556    
ec    17900  1.79           0.0001         356.14827     -275.18185      2.9002539      1368.61        1284.4109    
ec    18000  1.8            0.0001         287.72333     -274.61977      2.3430431      3217.2999      1282.1884    
ec    18100  1.81           0.0001         221.38778     -274.0726       1.8028468      4809.6459      1280.5229    
ec    18200  1.82           0.0001         337.89656     -275.00584      2.7516232      5109.353       1279.6961    
ec    18300  1.83           0.0001         383.27268     -275.36289      3.1211386      5165.818       1279.7991    
ec    18400  1.84           0.0001         300.00703     -274.6891       2.443074       5161.3292      1280.8644    
ec    18500  1.85           0.0001         356.90978     -275.16184      2.9064552      3563.6882      1282.883     
ec    18600  1.86           0.0001         390.62523     -275.45773      3.1810133      1040.3439      1285.5953    
ec    18700  1.87           0.0001         268.22228     -274.49125      2.1842384     -1206.177       1288.5709    
ec    18800  1.88           0.0001         303.19048     -274.79782      2.4689981     -3777.3989      1291.3791    
ec    18900  1.89           0.0001         379.17806     -275.45084      3.0877945     -5759.5961      1293.5498    
ec    19000  1.9            0.0001         295.4886      -274.82195      2.4062787     -6401.4244      1294.7073    
ec    19100  1.91           0.0001         268.46172     -274.65291      2.1861882     -6462.1291      1294.693     
ec    19200  1.92           0.0001         288.35278     -274.87457      2.3481689     -5771.8924      1293.4788    
ec    19300  1.93           0.0001         235.1817      -274.50055      1.9151761     -3797.1529      1291.1892    
ec    19400  1.94           0.0001         284.09813     -274.94824      2.3135216     -1459.5778      1288.1657    
ec    19500  1.95           0.0001         380.70379     -275.79841      3.1002191      1007.4         1284.8358    
ec    19600  1.96           0.0001         317.54516     -275.3605       2.5858938      3822.362       1281.662     
ec    19700  1.97           0.0001         266.46329     -275.0036       2.1699142      5848.9695      1279.1434    
ec    19800  1.98           0.0001         306.15438     -275.38409      2.4931342      6737.2331      1277.6509    
ec    19900  1.99           0.0001         279.234       -275.22596      2.2739111      7122.134       1277.3721    
ec    20000  2              0.0001         272.09679     -275.22202      2.21579        6216.2796      1278.3787    
ec    20100  2.01           0.0001         289.60056     -275.41589      2.3583301      3990.6475      1280.5266    
ec    20200  2.02           0.0001         253.21844     -275.1613       2.0620563      1528.1808      1283.4478    
ec    20300  2.03           0.0001         247.01355     -275.13517      2.0115275     -889.932        1286.706     
ec    20400  2.04           0.0001         278.03215     -275.40021      2.264124      -3214.432       1289.8571    
ec    20500  2.05           0.0001         258.64664     -275.24701      2.1062602     -5001.8714      1292.4718    
ec    20600  2.06           0.0001         274.0559      -275.37125      2.2317438     -6386.3833      1294.1982    
ec    20700  2.07           0.0001         276.18285     -275.38702      2.2490644     -6961.7253      1294.7668    
ec    20800  2.08           0.0001         223.84891     -274.96065      1.8228888     -6286.1949      1294.0604    
ec    20900  2.09           0.0001         258.22412     -275.23608      2.1028195     -4876.2352      1292.182     
ec    21000  2.1            0.0001         332.73115     -275.83044      2.7095592     -2825.3621      1289.3864    
ec    21100  2.11           0.0001         295.37023     -275.51367      2.4053147      109.2718       1286.0595    
ec    21200  2.12           0.0001         301.42857     -275.54695      2.4546501      2742.0532      1282.7223    
ec    21300  2.13           0.0001         297.70205     -275.49714      2.4243036      4714.2791      1279.8546    
ec    21400  2.14           0.0001         180.19303     -274.52229      1.4673819      6398.7986      1277.8276    
ec    21500  2.15           0.0001         202.12184     -274.6798       1.6459568      6962.877       1276.9369    
ec    21600  2.16           0.0001         341.33295     -275.77599      2.779607       6302.9277      1277.293     
ec    21700  2.17           0.0001         311.30029     -275.49627      2.5350394      5375.261       1278.8098    
ec    21800  2.18           0.0001         249.86849     -274.97462      2.0347763      3850.0896      1281.3275    
ec    21900  2.19           0.0001         297.19174     -275.33318      2.420148       1340.965       1284.574     
ec    22000  2.2            0.0001         290.17167     -275.24157      2.3629809     -1395.9933      1288.1126    
ec    22100  2.21           0.0001         257.28983     -274.93862      2.0952112     -4072.3963      1291.4417    
ec    22200  2.22           0.0001         299.42068     -275.24084      2.4382991     -6211.4681      1294.0619    
ec    22300  2.23           0.0001         308.48697     -275.27513      2.5121294     -7094.535       1295.5729    
ec    22400  2.24           0.0001         310.95194     -275.26639      2.5322027     -7226.3079      1295.7828    
ec    22500  2.25           0.0001         328.71729     -275.39227      2.6768728     -6635.9202      1294.6538    
ec    22600  2.26           0.0001         275.06589     -274.94733      2.2399686     -4734.8792      1292.3007    
ec    22700  2.27           0.0001         259.4613      -274.81226      2.1128944     -2105.072       1289.0653    
ec    22800  2.28           0.0001         310.10868     -275.20738      2.5253356      416.43027      1285.4221    
ec    22900  2.29           0.0001         256.79422     -274.75231      2.0911753      3117.4304      1281.8455    
ec    23000  2.3            0.0001         228.2433      -274.4951       1.858674       5658.055       1278.8247    
ec    23100  2.31           0.0001         302.62321     -275.06817      2.4643785      7508.9306      1276.8139    
ec    23200  2.32           0.0001         371.2714      -275.59723      3.0234075      8422.2247      1276.1508    
ec    23300  2.33           0.0001         393.79522     -275.77187      3.2068277      7897.8916      1277.0022    
ec    23400  2.34           0.0001         327.17147     -275.24418      2.6642846      6034.8841      1279.2898    
ec    23500  2.35           0.0001         236.58281     -274.52316      1.9265859      3204.9889      1282.6969    
ec    23600  2.36           0.0001         270.84261     -274.80459      2.2055768     -274.73845      1286.7235    
ec    23700  2.37           0.0001         340.72049     -275.36323      2.7746195     -3688.291       1290.7453    
ec    23800  2.38           0.0001         282.97942     -274.88205      2.3044116     -6126.935       1294.1405    
ec    23900  2.39           0.0001         283.26695     -274.87248      2.306753      -7895.5455      1296.4326    
ec    24000  2.4            0.0001         349.22529     -275.40154      2.8438774     -8821.9171      1297.276     
ec    24100  2.41           0.0001         263.07253     -274.70606      2.142302      -8003.3419      1296.5017    
ec    24200  2.42           0.0001         217.0148      -274.33845      1.767236      -6057.2375      1294.2436    
ec    24300  2.43           0.0001         301.52632     -275.0242       2.4554462     -3487.2166      1290.8575    
ec    24400  2.44           0.0001         349.92231     -275.40719      2.8495535     -222.78386      1286.8294    
ec    24500  2.45           0.0001         356.82826     -275.45197      2.9057914      3201.1613      1282.7585    
ec    24600  2.46           0.0001         351.28821     -275.39986      2.8606766      6185.086       1279.2645    
ec    24700  2.47           0.0001         310.01534     -275.06448      2.5245756      8131.0852      1276.881     
ec    24800  2.48           0.0001         314.84659     -275.11197      2.5639183      8364.2124      1275.9479    
ec    24900  2.49           0.0001         320.49397     -275.17746      2.6099071      7316.3738      1276.5175    
ec    25000  2.5            0.0001         228.5168      -274.45231      1.8609012      5871.7022      1278.4259    
ec    25100  2.51           0.0001         234.48257     -274.51517      1.9094828      3474.9964      1281.4098    
ec    25200  2.52           0.0001         298.21592     -275.03671      2.4284883      580.08236      1285.0516    
ec    25300  2.53           0.0001         283.98571     -274.91532      2.3126061     -1905.6729      1288.8427    
ec    25400  2.54           0.0001         339.75315     -275.35697      2.7667421     -4406.5272      1292.3128    
ec    25500  2.55           0.0001         378.22737     -275.66161      3.0800527     -6506.8646      1294.9966    
ec    25600  2.56           0.0001         269.09664     -274.77849      2.1913587     -7352.6897      1296.5064    
ec    25700  2.57           0.0001         273.39561     -274.82086      2.2263669     -7630.811       1296.6569    
ec    25800  2.58           0.0001         365.56947     -275.58608      2.9769744     -7064.5754      1295.3944    
ec    25900  2.59           0.0001         296.03852     -275.04976      2.4107568     -4881.2668      1292.8396    
ec    26000  2.6            0.0001         296.25083     -275.08059      2.4124858     -2326.7454      1289.3797    
ec    26100  2.61           0.0001         363.75051     -275.66652      2.962162       163.07595      1285.4863    
ec    26200  2.62           0.0001         222.48912     -274.55698      1.8118154      3339.1894      1281.6379    
ec    26300  2.63           0.0001         167.30709     -274.12272      1.3624468      5774.4568      1278.3879    
ec    26400  2.64           0.0001         305.66694     -275.26528      2.4891648      7053.241       1276.1684    
ec    26500  2.65           0.0001         286.40257     -275.14067      2.3322876      8499.5506      1275.2364    
ec    26600  2.66           0.0001         279.07667     -275.11927      2.2726299      8714.8429      1275.8311    
ec    26700  2.67           0.0001         386.83206     -276.05656      3.150124       6737.0595      1277.9836    
ec    26800  2.68           0.0001         305.72899     -275.48021      2.4896702      4159.0994      1281.3797    
ec    26900  2.69           0.0001         226.75868     -274.8991       1.8465842      1007.1948      1285.5602    
ec    27000  2.7            0.0001         332.76485     -275.81533      2.7098336     -3090.0683      1289.9437    
ec    27100  2.71           0.0001         297.80316     -275.59147      2.4251271     -6448.5585      1293.8008    
ec    27200  2.72           0.0001         186.24519     -274.71982      1.5166671     -8542.0387      1296.5011    
ec    27300  2.73           0.0001         236.1809      -275.15089      1.923313      -9751.5799      1297.6272    
ec    27400  2.74           0.0001         258.73553     -275.36804      2.1069841     -9186.2523      1296.9587    
ec    27500  2.75           0.0001         216.92534     -275.05962      1.7665074     -6983.5805      1294.5974    
ec    27600  2.76           0.0001         257.80893     -275.41547      2.0994385     -4232.9886      1290.9398    
ec    27700  2.77           0.0001         266.25259     -275.4962       2.1681984     -649.10718      1286.5143    
ec    27800  2.78           0.0001         250.95677     -275.3677       2.0436386      3301.334       1281.9819    
ec    27900  2.79           0.0001         302.03112     -275.76506      2.459557       6426.8359      1278.0464    
ec    28000  2.8            0.0001         301.7829      -275.74197      2.4575356      8701.1129      1275.2735    
ec    28100  2.81           0.0001         266.79437     -275.44239      2.1726104      9820.7475      1274.065     
ec    28200  2.82           0.0001         314.72812     -275.82375      2.5629535      8877.769       1274.6048    
ec    28300  2.83           0.0001         258.88191     -275.36688      2.1081761      6769.9334      1276.7464    
ec    28400  2.84           0.0001         158.27585     -274.54592      1.2889018      4147.0876      1280.1302    
ec    28500  2.85           0.0001         216.2574      -274.99875      1.7610681      680.79447      1284.2816    
ec    28600  2.86           0.0001         287.23672     -275.52212      2.3390804     -2809.0307      1288.5866    
ec    28700  2.87           0.0001         270.0888      -275.31146      2.1994382     -5399.636       1292.415     
ec    28800  2.88           0.0001         286.54024     -275.3699       2.3334087     -7213.6512      1295.2718    
ec    28900  2.89           0.0001         287.49874     -275.30015      2.3412141     -8017.7766      1296.8105    
ec    29000  2.9            0.0001         262.62226     -275.03326      2.1386353     -7714.851       1296.8735    
ec    29100  2.91           0.0001         322.05417     -275.45627      2.6226124     -6792.7053      1295.5036    
ec    29200  2.92           0.0001         339.76489     -275.54241      2.7668377     -4895.6113      1292.8838    
ec    29300  2.93           0.0001         304.0329      -275.20876      2.4758582     -2104.1641      1289.3732    
ec    29400  2.94           0.0001         316.42875     -275.27137      2.5768024      655.94659      1285.4791    
ec    29500  2.95           0.0001         296.37783     -275.07068      2.41352        3133.577       1281.7096    
ec    29600  2.96           0.0001         221.24138     -274.42597      1.8016546      5456.2722      1278.5186    
ec    29700  2.97           0.0001         231.36421     -274.47429      1.8840888      7348.7309      1276.3203    
ec    29800  2.98           0.0001         299.27422     -274.98766      2.4371065      8197.5639      1275.4427    
ec    29900  2.99           0.0001         320.42482     -275.1264       2.609344       8066.2057      1276.0428    
ec    30000  3              0.0001         316.7068      -275.07629      2.5790667      6871.0925      1278.1011    
ec    30100  3.01           0.0001         319.19212     -275.08585      2.5993057      4578.858       1281.4122    
ec    30200  3.02           0.0001         391.89019     -275.66786      3.1913143      1160.6614      1285.568     
ec    30300  3.03           0.0001         379.07237     -275.56102      3.0869338     -2375.3897      1289.9669    
ec    30400  3.04           0.0001         257.26316     -274.57009      2.094994      -5387.8601      1293.9629    
ec    30500  3.05           0.0001         255.94121     -274.55038      2.0842289     -8024.5499      1296.9801    
ec    30600  3.06           0.0001         329.45313     -275.13896      2.6828651     -9662.7439      1298.5218    
ec    30700  3.07           0.0001         272.41221     -274.67676      2.2183587     -9335.0078      1298.2895    
ec    30800  3.08           0.0001         292.52929     -274.84897      2.3821799     -7804.334       1296.3269    
ec    30900  3.09           0.0001         366.76416     -275.46499      2.9867032     -5436.8185      1292.9218    
ec    31000  3.1            0.0001         271.95082     -274.70906      2.2146014     -1912.4905      1288.5344    
ec    31100  3.11           0.0001         222.9316      -274.31129      1.8154188      1918.4317      1283.8109    
ec    31200  3.12           0.0001         323.97228     -275.11649      2.6382323      5424.1158      1279.446     
ec    31300  3.13           0.0001         328.45881     -275.13107      2.6747679      8792.3757      1276.0834    
ec    31400  3.14           0.0001         350.15783     -275.29541      2.8514715      10381.357      1274.2961    
ec    31500  3.15           0.0001         436.41263     -276.00947      3.5538778      9813.4345      1274.3599    
ec    31600  3.16           0.0001         325.1749      -275.15045      2.6480257      8313.5495      1276.1988    
ec    31700  3.17           0.0001         217.81948     -274.31986      1.7737888      5502.6722      1279.5418    
ec    31800  3.18           0.0001         273.63004     -274.80372      2.2282759      1502.2623      1283.8905    
ec    31900  3.19           0.0001         263.9167      -274.74285      2.1491764     -2136.702       1288.5489    
ec    32000  3.2            0.0001         249.50636     -274.62911      2.0318274     -5239.3303      1292.8459    
ec    32100  3.21           0.0001         333.8956      -275.31312      2.7190418     -7872.0106      1296.1931    
ec    32200  3.22           0.0001         331.05517     -275.29846      2.6959111     -9066.3133      1298.105     
ec    32300  3.23           0.0001         286.39124     -274.95648      2.3321953     -8978.0879      1298.3441    
ec    32400  3.24           0.0001         339.60597     -275.4242       2.7655436     -8157.4573      1296.9127    
ec    32500  3.25           0.0001         307.95256     -275.21872      2.5077775     -5964.6468      1293.9834    
ec    32600  3.26           0.0001         247.27979     -274.77301      2.0136956     -2732.4174      1289.9694    
ec    32700  3.27           0.0001         294.93852     -275.20128      2.4017992      681.37064      1285.4648    
ec    32800  3.28           0.0001         296.79529     -275.25675      2.4169195      4182.0178      1281.1051    
ec    32900  3.29           0.0001         301.1502      -275.33204      2.4523832      6880.0401      1277.5127    
ec    33000  3.3            0.0001         329.80494     -275.6202       2.68573        8299.4396      1275.1622    
ec    33100  3.31           0.0001         258.80354     -275.11032      2.107538       8929.962       1274.3122    
ec    33200  3.32           0.0001         193.16586     -274.63158      1.5730247      8514.3503      1275.0687    
ec    33300  3.33           0.0001         248.33457     -275.13396      2.022285       6488.5914      1277.3487    
ec    33400  3.34           0.0001         246.52883     -275.17426      2.0075802      3863.8131      1280.8142    
ec    33500  3.35           0.0001         251.12114     -275.25238      2.0449771      945.77007      1285.0013    
ec    33600  3.36           0.0001         367.30934     -276.23554      2.9911429     -2594.3918      1289.373     
ec    33700  3.37           0.0001         337.97271     -276.04465      2.7522433     -5766.0829      1293.2923    
ec    33800  3.38           0.0001         199.21375     -274.94795      1.6222751     -7933.4089      1296.1704    
ec    33900  3.39           0.0001         217.91099     -275.11695      1.774534      -9301.3057      1297.5834    
ec    34000  3.4            0.0001         261.58276     -275.49419      2.1301702     -9175.2688      1297.2809    
ec    34100  3.41           0.0001         232.43999     -275.28086      1.8928493     -7448.2409      1295.29      
ec    34200  3.42           0.0001         254.34355     -275.47725      2.0712185     -4930.1583      1291.9268    
ec    34300  3.43           0.0001         267.40522     -275.59148      2.1775848     -1736.4546      1287.6716    
ec    34400  3.44           0.0001         245.2408      -275.40477      1.9970912      1848.2987      1283.1201    
ec    34500  3.45           0.0001         254.90874     -275.46119      2.0758211      5087.8214      1278.9202    
ec    34600  3.46           0.0001         247.74598     -275.36882      2.0174919      7785.7707      1275.6548    
ec    34700  3.47           0.0001         222.8074      -275.12854      1.8144073      9596.6877      1273.7987    
ec    34800  3.48           0.0001         274.67869     -275.5095       2.2368154      9704.2807      1273.6565    
ec    34900  3.49           0.0001         294.25714     -275.62119      2.3962504      8444.1617      1275.2545    
ec    35000  3.5            0.0001         264.00975     -275.33046      2.1499342      6200.7151      1278.3798    
ec    35100  3.51           0.0001         297.21505     -275.54683      2.4203378      2812.3618      1282.6328    
ec    35200  3.52           0.0001         317.34932     -275.63579      2.584299      -1177.359       1287.4135    
ec    35300  3.53           0.0001         269.75631     -275.1686       2.1967306     -4883.3122      1292.0039    
ec    35400  3.54           0.0001         238.72062     -274.83994      1.9439949     -7801.5873      1295.7152    
ec    35500  3.55           0.0001         221.84071     -274.63165      1.8065352     -9331.9476      1298.0004    
ec    35600  3.56           0.0001         261.75576     -274.89339      2.131579      -9545.412       1298.5606    
ec    35700  3.57           0.0001         358.78869     -275.62073      2.9217559     -8748.2557      1297.3482    
ec    35800  3.58           0.0001         325.43417     -275.30888      2.6501371     -6474.9904      1294.5302    
ec    35900  3.59           0.0001         251.78655     -274.69189      2.0503958     -3099.649       1290.5367    
ec    36000  3.6            0.0001         306.37501     -275.11462      2.4949309      395.62637      1285.9891    
ec    36100  3.61           0.0001         327.79713     -275.26009      2.6693796      3871.5842      1281.5374    
ec    36200  3.62           0.0001         278.07038     -274.82839      2.2644353      7038.7516      1277.8122    
ec    36300  3.63           0.0001         334.80754     -275.26499      2.7264681      8886.6165      1275.3618    
ec    36400  3.64           0.0001         371.8628      -275.55425      3.0282235      9398.2888      1274.5119    
ec    36500  3.65           0.0001         281.97518     -274.83075      2.2962336      8806.5817      1275.3552    
ec    36600  3.66           0.0001         253.38492     -274.61095      2.063412       6792.5094      1277.7799    
ec    36700  3.67           0.0001         300.67383     -275.00319      2.448504       3589.9777      1281.4323    
ec    36800  3.68           0.0001         287.92008     -274.89864      2.3446453      191.39437      1285.7552    
ec    36900  3.69           0.0001         293.00345     -274.92922      2.3860411     -3103.2046      1290.1316    
ec    37000  3.7            0.0001         306.45847     -275.01973      2.4956106     -5955.7858      1293.9543    
ec    37100  3.71           0.0001         300.40112     -274.95096      2.4462832     -7949.9124      1296.6904    
ec    37200  3.72           0.0001         303.35309     -274.96095      2.4703222     -8784.8212      1297.963     
ec    37300  3.73           0.0001         332.40925     -275.19251      2.7069379     -8381.6771      1297.6123    
ec    37400  3.74           0.0001         356.43435     -275.39541      2.9025836     -6768.5993      1295.7173    
ec    37500  3.75           0.0001         333.41283     -275.22687      2.7151104     -4326.0515      1292.583     
ec    37600  3.76           0.0001         289.49231     -274.88943      2.3574485     -1624.5977      1288.6655    
ec    37700  3.77           0.0001         278.00538     -274.80749      2.263906       1182.2895      1284.4707    
ec    37800  3.78           0.0001         298.68826     -274.97839      2.4323347      4095.1051      1280.5175    
ec    37900  3.79           0.0001         287.94363     -274.88897      2.344837       6764.8048      1277.329     
ec    38000  3.8            0.0001         274.7016      -274.77875      2.2370021      8440.9975      1275.3687    
ec    38100  3.81           0.0001         286.42542     -274.8757       2.3324737      8942.757       1274.9286    
ec    38200  3.82           0.0001         285.9123      -274.87965      2.3282951      8414.9434      1276.0994    
ec    38300  3.83           0.0001         324.98819     -275.21062      2.6465053      6421.6518      1278.7813    
ec    38400  3.84           0.0001         373.83046     -275.62562      3.0442469      3214.2109      1282.6262    
ec    38500  3.85           0.0001         333.77417     -275.32256      2.7180529     -380.21104      1287.071     
ec    38600  3.86           0.0001         294.26255     -275.01883      2.3962945     -4002.09        1291.4607    
ec    38700  3.87           0.0001         307.81969     -275.14201      2.5066955     -7017.0769      1295.1288    
ec    38800  3.88           0.0001         269.29042     -274.84396      2.1929367     -8679.6128      1297.5161    
ec    38900  3.89           0.0001         244.66069     -274.66004      1.9923672     -9164.1174      1298.2992    
ec    39000  3.9            0.0001         319.21351     -275.29081      2.5994799     -8773.7594      1297.3796    
ec    39100  3.91           0.0001         319.69906     -275.33343      2.6034338     -7072.4485      1294.8468    
ec    39200  3.92           0.0001         240.63449     -274.72912      1.9595803     -4224.6169      1291.0292    
ec    39300  3.93           0.0001         235.51574     -274.71129      1.9178964     -759.26164      1286.4594    
ec    39400  3.94           0.0001         286.63584     -275.13592      2.3341872      3288.7173      1281.7881    
ec    39500  3.95           0.0001         320.4973      -275.41125      2.6099342      7044.4397      1277.7425    
ec    39600  3.96           0.0001         346.77554     -275.63048      2.8239282      9416.4172      1274.9773    
ec    39700  3.97           0.0001         318.11624     -275.42011      2.5905443      10427.682      1273.9119    
ec    39800  3.98           0.0001         300.54859     -275.31519      2.4474841      9559.7767      1274.7108    
ec    39900  3.99           0.0001         320.98003     -275.53325      2.6138653      6743.457       1277.2155    
ec    40000  4              0.0001         251.70568     -275.02301      2.0497373      3269.648       1280.9454    
ec    40100  4.01           0.0001         194.50095     -274.58933      1.5838969     -195.38674      1285.2838    
ec    40200  4.02           0.0001         260.66746     -275.14308      2.1227165     -3505.0843      1289.5977    
ec    40300  4.03           0.0001         262.69806     -275.16822      2.1392526     -5966.8768      1293.2844    
ec    40400  4.04           0.0001         221.83734     -274.83766      1.8065078     -7472.1027      1295.8807    
ec    40500  4.05           0.0001         304.91644     -275.51391      2.4830532     -8482.3022      1297.0886    
ec    40600  4.06           0.0001         351.59147     -275.90465      2.8631461     -8266.2812      1296.7318    
ec    40700  4.07           0.0001         284.08563     -275.38001      2.3134198     -6629.998       1294.86      
ec    40800  4.08           0.0001         272.8509      -275.31325      2.221931      -4407.6839      1291.7732    
ec    40900  4.09           0.0001         276.0929      -275.35926      2.2483319     -1538.1338      1287.8986    
ec    41000  4.1            0.0001         235.58421     -275.03726      1.9184539      1877.078       1283.7757    
ec    41100  4.11           0.0001         298.45635     -275.543        2.4304462      4572.5126      1280.0105    
ec    41200  4.12           0.0001         328.13234     -275.77591      2.6721093      6520.1691      1277.091     
ec    41300  4.13           0.0001         220.53562     -274.89573      1.7959074      7874.509       1275.3649    
ec    41400  4.14           0.0001         202.74042     -274.7444       1.6509941      7878.7166      1275.0529    
ec    41500  4.15           0.0001         265.84073     -275.24379      2.1648445      6867.9385      1276.1558    
ec    41600  4.16           0.0001         231.42551     -274.94291      1.884588       5643.8782      1278.5074    
ec    41700  4.17           0.0001         256.86557     -275.12096      2.0917563      3588.5398      1281.8788    
ec    41800  4.18           0.0001         363.56381     -275.93081      2.9606415      533.26054      1285.8981    
ec    41900  4.19           0.0001         360.02137     -275.82785      2.9317941     -2583.4665      1290.0252    
ec    42000  4.2            0.0001         289.41858     -275.18883      2.3568481     -5372.8211      1293.6875    
ec    42100  4.21           0.0001         307.88652     -275.2765       2.5072397     -7825.5656      1296.3572    
ec    42200  4.22           0.0001         308.2387      -275.21621      2.5101077     -9074.9559      1297.5851    
ec    42300  4.23           0.0001         242.79724     -274.63675      1.9771924     -8781.3746      1297.1411    
ec    42400  4.24           0.0001         240.48445     -274.57983      1.9583585     -7377.4735      1295.0771    
ec    42500  4.25           0.0001         267.8534      -274.7568       2.1812345     -4726.944       1291.6718    
ec    42600  4.26           0.0001         285.62496     -274.84365      2.3259552     -1113.8514      1287.4294    
ec    42700  4.27           0.0001         324.10455     -275.08717      2.6393095      2512.3038      1283.0124    
ec    42800  4.28           0.0001         362.52408     -275.32406      2.9521747      5750.9056      1279.0811    
ec    42900  4.29           0.0001         341.20132     -275.088        2.7785351      8529.2715      1276.2187    
ec    43000  4.3            0.0001         323.08967     -274.89897      2.6310449      9868.494       1274.8983    
ec    43100  4.31           0.0001         313.92382     -274.80182      2.5564038      9492.4539      1275.3474    
ec    43200  4.32           0.0001         336.54376     -274.97748      2.7406068      7682.8914      1277.5002    
ec    43300  4.33           0.0001         369.00531     -275.24226      3.0049538      4529.7653      1281.0343    
ec    43400  4.34           0.0001         359.0871      -275.16841      2.924186       577.77313      1285.3912    
ec    43500  4.35           0.0001         296.76196     -274.66656      2.4166481     -3084.3776      1289.8676    
ec    43600  4.36           0.0001         258.98901     -274.35494      2.1090483     -6043.1768      1293.7888    
ec    43700  4.37           0.0001         272.4163      -274.45322      2.218392      -8189.3425      1296.5973    
ec    43800  4.38           0.0001         287.49128     -274.56627      2.3411533     -8994.5228      1297.8952    
ec    43900  4.39           0.0001         309.5786      -274.74337      2.521019      -8411.6033      1297.5317    
ec    44000  4.4            0.0001         354.4204      -275.11461      2.8861832     -6799.0741      1295.6175    
ec    44100  4.41           0.0001         375.45848     -275.30396      3.0575045     -4242.5978      1292.4669    
ec    44200  4.42           0.0001         353.87043     -275.15558      2.8817046     -1059.3049      1288.5657    
ec    44300  4.43           0.0001         353.84602     -275.18537      2.8815058      1970.4539      1284.4983    
ec    44400  4.44           0.0001         343.12062     -275.13213      2.7941647      4727.7645      1280.8217    
ec    44500  4.45           0.0001         295.83152     -274.78201      2.4090712      6896.6656      1278.0279    
ec    44600  4.46           0.0001         276.53506     -274.65786      2.2519326      7678.6037      1276.4853    
ec    44700  4.47           0.0001         267.45182     -274.61871      2.1779642      7340.0917      1276.3289    
ec    44800  4.48           0.0001         258.5849      -274.58062      2.1057574      6488.7469      1277.5024    
ec    44900  4.49           0.0001         321.92857     -275.13134      2.6215896      4703.3343      1279.8423    
ec    45000  4.5            0.0001         362.82576     -275.5085       2.9546313      2285.7702      1283.0328    
ec    45100  4.51           0.0001         282.29836     -274.89915      2.2988654     -65.206106      1286.6479    
ec    45200  4.52           0.0001         264.79226     -274.78704      2.1563064     -2709.0947      1290.2476    
ec    45300  4.53           0.0001         349.93984     -275.50864      2.8496963     -5402.6893      1293.3435    
ec    45400  4.54           0.0001         311.77217     -275.23671      2.5388821     -6934.0075      1295.4538    
ec    45500  4.55           0.0001         265.67088     -274.89763      2.1634614     -7545.8722      1296.2842    
ec    45600  4.56           0.0001         342.24216     -275.56377      2.7870111     -7574.5987      1295.7147    
ec    45700  4.57           0.0001         326.84563     -275.49933      2.6616312     -6208.0154      1293.7643    
ec    45800  4.58           0.0001         222.27111     -274.70044      1.8100401     -3674.5893      1290.6959    
ec    45900  4.59           0.0001         231.06756     -274.80331      1.8816731     -950.22833      1286.9738    
ec    46000  4.6            0.0001         285.59481     -275.26787      2.3257096      1868.4143      1283.1087    
ec    46100  4.61           0.0001         274.13638     -275.18739      2.2323992      4601.2425      1279.6166    
ec    46200  4.62           0.0001         256.72349     -275.05056      2.0905993      6733.4682      1276.98      
ec    46300  4.63           0.0001         278.09396     -275.22659      2.2646273      8122.3149      1275.5729    
ec    46400  4.64           0.0001         304.56469     -275.44835      2.4801888      8484.7868      1275.6326    
ec    46500  4.65           0.0001         329.89702     -275.66965      2.6864798      7295.6602      1277.21      
ec    46600  4.66           0.0001         322.20215     -275.63036      2.6238175      4815.0723      1280.0948    
ec    46700  4.67           0.0001         261.87454     -275.1607       2.1325463      1701.2855      1283.8506    
ec    46800  4.68           0.0001         242.17565     -275.00781      1.9721305     -1750.5047      1287.9126    
ec    46900  4.69           0.0001         256.77149     -275.11924      2.0909902     -4849.2986      1291.6556    
ec    47000  4.7            0.0001         259.73725     -275.12658      2.1151415     -7018.1855      1294.5097    
ec    47100  4.71           0.0001         268.46125     -275.177        2.1861845     -8071.2841      1296.0697    
ec    47200  4.72           0.0001         292.38454     -275.34935      2.381001      -7955.0629      1296.14      
ec    47300  4.73           0.0001         296.88454     -275.36077      2.4176463     -6814.3762      1294.7467    
ec    47400  4.74           0.0001         266.84539     -275.08396      2.1730259     -4858.7149      1292.1116    
ec    47500  4.75           0.0001         246.06501     -274.86504      2.0038032     -2201.6372      1288.6105    
ec    47600  4.76           0.0001         293.64298     -275.16251      2.391249       867.71444      1284.7412    
ec    47700  4.77           0.0001         357.30409     -275.53017      2.9096663      3992.1827      1281.0673    
ec    47800  4.78           0.0001         343.30516     -275.24427      2.7956675      6764.8169      1278.1505    
ec    47900  4.79           0.0001         311.48167     -274.84229      2.5365164      8386.9976      1276.4699    
ec    48000  4.8            0.0001         326.48371     -274.85311      2.6586839      8440.762       1276.3002    
ec    48100  4.81           0.0001         348.98556     -274.94936      2.8419252      6943.711       1277.6426    
ec    48200  4.82           0.0001         305.87547     -274.54133      2.490863       4561.9474      1280.2353    
ec    48300  4.83           0.0001         299.61877     -274.4499       2.4399122      1719.5969      1283.6513    
ec    48400  4.84           0.0001         320.65262     -274.58024      2.6111991     -1074.5703      1287.3804    
ec    48500  4.85           0.0001         307.83672     -274.43723      2.5068342     -3311.2575      1290.9178    
ec    48600  4.86           0.0001         338.77724     -274.65277      2.7587949     -5155.6207      1293.8421    
ec    48700  4.87           0.0001         386.51183     -275.01195      3.1475163     -6458.097       1295.8116    
ec    48800  4.88           0.0001         397.91915     -275.09593      3.2404105     -7168.9196      1296.5832    
ec    48900  4.89           0.0001         347.03908     -274.69707      2.8260743     -7017.3043      1296.0331    
ec    49000  4.9            0.0001         316.60484     -274.47641      2.5782364     -5873.2851      1294.1999    
ec    49100  4.91           0.0001         345.2732      -274.74226      2.811694      -3741.9623      1291.3099    
ec    49200  4.92           0.0001         354.60315     -274.85711      2.8876714     -798.71747      1287.77      
ec    49300  4.93           0.0001         332.26294     -274.71549      2.7057464      2317.7194      1284.1226    
ec    49400  4.94           0.0001         346.01808     -274.86853      2.8177599      4708.7431      1280.9246    
ec    49500  4.95           0.0001         333.44412     -274.81543      2.7153652      6229.5775      1278.603     
ec    49600  4.96           0.0001         275.51354     -274.39317      2.2436139      7007.757       1277.425     
ec    49700  4.97           0.0001         291.63461     -274.57035      2.3748941      6758.7564      1277.5145    
ec    49800  4.98           0.0001         342.60084     -275.04143      2.789932       5678.5299      1278.8225    
ec    49900  4.99           0.0001         328.02758     -274.98831      2.6712562      4184.4799      1281.1586    
ec    50000  5              0.0001         328.53596     -275.05768      2.6753962      1993.8954      1284.2444    
ec    50100  5.01           0.0001         322.85232     -275.07483      2.6291121     -556.2117       1287.6862    
ec    50200  5.02           0.0001         309.03785     -275.01768      2.5166154     -3177.4916      1291.0181    
ec    50300  5.03           0.0001         346.47524     -275.37495      2.8214827     -5668.5825      1293.7556    
ec    50400  5.04           0.0001         344.53106     -275.4209       2.8056505     -7386.2618      1295.4438    
ec    50500  5.05           0.0001         265.80263     -274.83854      2.1645342     -7741.3802      1295.7746    
ec    50600  5.06           0.0001         246.89755     -274.73078      2.0105828     -7049.9546      1294.6808    
ec    50700  5.07           0.0001         263.34798     -274.90552      2.1445451     -5213.4592      1292.3072    
ec    50800  5.08           0.0001         268.22573     -274.978        2.1842665     -2446.988       1289.0082    
ec    50900  5.09           0.0001         278.84172     -275.08579      2.2707166      531.15737      1285.2964    
ec    51000  5.1            0.0001         301.01332     -275.27797      2.4512686      3378.1255      1281.7204    
ec    51100  5.11           0.0001         313.93322     -275.39108      2.5564803      5801.8459      1278.7929    
ec    51200  5.12           0.0001         311.31403     -275.38005      2.5351513      7295.2009      1276.9355    
ec    51300  5.13           0.0001         285.95341     -275.18927      2.3286299      7769.0651      1276.4038    
ec    51400  5.14           0.0001         272.99096     -275.10196      2.2230716      7213.6118      1277.2726    
ec    51500  5.15           0.0001         332.35047     -275.60601      2.7064592      5283.2363      1279.4276    
ec    51600  5.16           0.0001         312.48756     -275.46991      2.5447078      2621.7102      1282.5286    
ec    51700  5.17           0.0001         214.00765     -274.68554      1.7427476     -182.52724      1286.0993    
ec    51800  5.18           0.0001         252.83758     -275.00175      2.0589548     -3257.2778      1289.619     
ec    51900  5.19           0.0001         322.33771     -275.55752      2.6249214     -5749.7214      1292.5327    
ec    52000  5.2            0.0001         247.93213     -274.94358      2.0190078     -6786.5865      1294.3931    
ec    52100  5.21           0.0001         231.01629     -274.79695      1.8812556     -7097.8461      1294.9939    
ec    52200  5.22           0.0001         299.32878     -275.33924      2.4375508     -6686.6391      1294.2843    
ec    52300  5.23           0.0001         276.62396     -275.13957      2.2526565     -4814.1486      1292.3686    
ec    52400  5.24           0.0001         285.83614     -275.19647      2.3276749     -2365.9527      1289.5934    
ec    52500  5.25           0.0001         375.69963     -275.8972       3.0594683     -47.047499      1286.4122    
ec    52600  5.26           0.0001         341.98218     -275.59286      2.784894       2533.9634      1283.2675    
ec    52700  5.27           0.0001         279.40218     -275.05975      2.2752807      4555.1511      1280.6154    
ec    52800  5.28           0.0001         293.18311     -275.14589      2.3875041      5432.8709      1278.8043    
ec    52900  5.29           0.0001         232.65995     -274.62622      1.8946405      5934.0513      1277.9968    
ec    53000  5.3            0.0001         209.17242     -274.40762      1.7033724      5728.0889      1278.266     
ec    53100  5.31           0.0001         325.81847     -275.30748      2.6532666      4387.1138      1279.557     
ec    53200  5.32           0.0001         323.31835     -275.21735      2.6329071      3179.462       1281.647     
ec    53300  5.33           0.0001         265.58402     -274.68553      2.162754       1804.3658      1284.3077    
ec    53400  5.34           0.0001         343.83808     -275.24706      2.8000073     -449.24163      1287.2723    
ec    53500  5.35           0.0001         370.17101     -275.36732      3.0144466     -2505.3703      1290.1463    
ec    53600  5.36           0.0001         307.30663     -274.77826      2.5025174     -4062.9683      1292.5542    
ec    53700  5.37           0.0001         345.94447     -275.02409      2.8171605     -5718.059       1294.1937    
ec    53800  5.38           0.0001         357.77556     -275.05697      2.9135056     -6426.1919      1294.7799    
ec    53900  5.39           0.0001         311.33601     -274.63678      2.5353303     -5861.4919      1294.1939    
ec    54000  5.4            0.0001         342.72381     -274.86109      2.7909334     -4802.6779      1292.5376    
ec    54100  5.41           0.0001         346.19696     -274.86516      2.8192166     -2990.5185      1290.0279    
ec    54200  5.42           0.0001         285.15122     -274.35251      2.3220974     -494.56835      1287.0127    
ec    54300  5.43           0.0001         291.30324     -274.38462      2.3721956      1648.9894      1283.939     
ec    54400  5.44           0.0001         287.36898     -274.33008      2.3401574      3796.2144      1281.2072    
ec    54500  5.45           0.0001         275.71074     -274.21152      2.2452198      5913.5153      1279.2025    
ec    54600  5.46           0.0001         403.973       -275.23103      3.2897093      6962.4202      1278.2801    
ec    54700  5.47           0.0001         472.48287     -275.78709      3.8476119      6985.6554      1278.6198    
ec    54800  5.48           0.0001         383.68248     -275.10205      3.1244757      6167.2774      1280.222     
ec    54900  5.49           0.0001         369.92655     -275.04157      3.0124559      3626.1712      1282.9129    
ec    55000  5.5            0.0001         332.77205     -274.79448      2.7098923      286.50146      1286.2417    
ec    55100  5.51           0.0001         237.436       -274.05558      1.9335337     -2764.0274      1289.6106    
ec    55200  5.52           0.0001         268.51998     -274.32552      2.1866627     -5331.6406      1292.4556    
ec    55300  5.53           0.0001         346.43335     -274.97608      2.8211416     -6877.7695      1294.3105    
ec    55400  5.54           0.0001         317.67588     -274.76728      2.5869583     -6972.5715      1294.9002    
ec    55500  5.55           0.0001         295.30466     -274.61158      2.4047808     -5946.6409      1294.212     
ec    55600  5.56           0.0001         336.45114     -274.97391      2.7398526     -4398.4123      1292.4411    
ec    55700  5.57           0.0001         333.60989     -274.98091      2.7167151     -2242.4365      1289.8941    
ec    55800  5.58           0.0001         326.64042     -274.95166      2.65996        122.39099      1286.9751    
ec    55900  5.59           0.0001         340.72877     -275.09077      2.7746869      2233.5828      1284.1176    
ec    56000  5.6            0.0001         353.25344     -275.21854      2.8766802      3974.0605      1281.7048    
ec    56100  5.61           0.0001         349.00388     -275.21428      2.8420744      5205.0773      1280.0439    
ec    56200  5.62           0.0001         332.27695     -275.11288      2.7058605      5611.8421      1279.3415    
ec    56300  5.63           0.0001         308.72545     -274.95716      2.5140715      5068.4243      1279.6566    
ec    56400  5.64           0.0001         276.41242     -274.7264       2.2509339      3738.3464      1280.8824    
ec    56500  5.65           0.0001         234.50551     -274.40736      1.9096696      2119.2573      1282.7778    
ec    56600  5.66           0.0001         243.08731     -274.48691      1.9795546      424.09563      1285.0455    
ec    56700  5.67           0.0001         293.28744     -274.89602      2.3883538     -1093.0513      1287.3774    
ec    56800  5.68           0.0001         329.34965     -275.1871       2.6820223     -2288.5968      1289.4974    
ec    56900  5.69           0.0001         379.82248     -275.60069      3.0930423     -3337.4332      1291.1833    
ec    57000  5.7            0.0001         400.61065     -275.7899       3.2623284     -4118.9702      1292.2464    
ec    57100  5.71           0.0001         290.65668     -274.92881      2.3669304     -4235.4393      1292.5547    
ec    57200  5.72           0.0001         242.24811     -274.55943      1.9727206     -4193.6473      1292.0834    
ec    57300  5.73           0.0001         337.79983     -275.36028      2.7508355     -3977.4203      1290.8487    
ec    57400  5.74           0.0001         308.41865     -275.15196      2.5115731     -2591.0167      1288.9218    
ec    57500  5.75           0.0001         231.33868     -274.54742      1.8838809     -534.94738      1286.5605    
ec    57600  5.76           0.0001         304.04981     -275.15194      2.4759959      1104.4296      1284.1292    
ec    57700  5.77           0.0001         312.70835     -275.23544      2.5465058      2843.1039      1281.9403    
ec    57800  5.78           0.0001         229.3182      -274.5662       1.8674273      4483.6634      1280.3028    
ec    57900  5.79           0.0001         274.34174     -274.9349       2.2340715      5110.9996      1279.4878    
ec    58000  5.8            0.0001         337.76669     -275.45391      2.7505656      5171.9597      1279.6067    
ec    58100  5.81           0.0001         305.03609     -275.19772      2.4840276      4785.3271      1280.6637    
ec    58200  5.82           0.0001         346.18718     -275.54747      2.8191369      3191.5712      1282.5649    
ec    58300  5.83           0.0001         330.25168     -275.44025      2.6893679      1203.5352      1285.0299    
ec    58400  5.84           0.0001         264.34298     -274.92493      2.1526478     -872.27304      1287.6961    
ec    58500  5.85           0.0001         322.03998     -275.41051      2.6224968     -3385.8617      1290.1712    
ec    58600  5.86           0.0001         291.67798     -275.18388      2.3752473     -5107.525       1292.0145    
ec    58700  5.87           0.0001         186.03686     -274.339        1.5149705     -5664.1194      1292.9175    
ec    58800  5.88           0.0001         259.6599      -274.94576      2.1145116     -5847.7783      1292.7686    
ec    58900  5.89           0.0001         318.57686     -275.43341      2.5942954     -4816.9174      1291.5648    
ec    59000  5.9            0.0001         264.41101     -275.00247      2.1532017     -2593.6683      1289.5144    
ec    59100  5.91           0.0001         306.3776      -275.34864      2.4949521     -633.76372      1287.0153    
ec    59200  5.92           0.0001         328.26944     -275.53009      2.6732258      1280.2316      1284.4414    
ec    59300  5.93           0.0001         261.18664     -274.98777      2.1269445      3399.7219      1282.1497    
ec    59400  5.94           0.0001         303.27141     -275.33014      2.4696571      4585.6111      1280.4986    
ec    59500  5.95           0.0001         337.91863     -275.61603      2.7518029      4952.1185      1279.6954    
ec    59600  5.96           0.0001         269.62623     -275.07197      2.1956713      4957.5175      1279.803     
ec    59700  5.97           0.0001         286.69071     -275.22289      2.334634       3969.2202      1280.7978    
ec    59800  5.98           0.0001         298.4307      -275.33162      2.4302374      2369.37        1282.4977    
ec    59900  5.99           0.0001         197.95771     -274.52324      1.6120466      926.57899      1284.6197    
ec    60000  6              0.0001         238.20457     -274.84757      1.9397925     -974.2424       1286.8827    
ec    60100  6.01           0.0001         337.36415     -275.6372       2.7472876     -2809.1185      1288.946     
ec    60200  6.02           0.0001         281.88504     -275.16779      2.2954996     -3591.737       1290.4927    
ec    60300  6.03           0.0001         279.36912     -275.12996      2.2750115     -4059.8977      1291.3676    
ec    60400  6.04           0.0001         340.49586     -275.60505      2.7727903     -4269.8691      1291.4904    
ec    60500  6.05           0.0001         283.8089      -275.12538      2.3111663     -3478.8384      1290.8472    
ec    60600  6.06           0.0001         268.91045     -274.98715      2.1898425     -2438.4174      1289.5802    
ec    60700  6.07           0.0001         325.14554     -275.4198       2.6477866     -1445.3455      1287.8867    
ec    60800  6.08           0.0001         309.82524     -275.26746      2.5230275      28.521335      1285.9671    
ec    60900  6.09           0.0001         266.83169     -274.89121      2.1729143      1601.9793      1284.0891    
ec    61000  6.1            0.0001         296.63311     -275.10179      2.4155989      2567.5332      1282.5252    
ec    61100  6.11           0.0001         291.41959     -275.02219      2.3731431      3323.6554      1281.4544    
ec    61200  6.12           0.0001         280.77796     -274.89868      2.2864842      3745.7348      1281.0031    
ec    61300  6.13           0.0001         273.36235     -274.79895      2.226096       3662.5282      1281.2355    
ec    61400  6.14           0.0001         269.92405     -274.73027      2.1980966      3230.0759      1282.1313    
ec    61500  6.15           0.0001         341.12684     -275.25925      2.7779286      2173.2283      1283.5991    
ec    61600  6.16           0.0001         360.47785     -275.36245      2.9355114      831.53468      1285.4483    
ec    61700  6.17           0.0001         336.8042      -275.12605      2.7427277     -604.22459      1287.433     
ec    61800  6.18           0.0001         350.45433     -275.20065      2.853886      -2115.9031      1289.2884    
ec    61900  6.19           0.0001         339.02841     -275.07807      2.7608403     -3454.4981      1290.7402    
ec    62000  6.2            0.0001         258.94765     -274.40628      2.1087115     -4069.9115      1291.5552    
ec    62100  6.21           0.0001         267.28658     -274.45429      2.1766186     -4078.1619      1291.6221    
ec    62200  6.22           0.0001         331.56279     -274.95103      2.7000448     -3566.2296      1290.9488    
ec    62300  6.23           0.0001         356.23493     -275.12621      2.9009597     -2546.9273      1289.6416    
ec    62400  6.24           0.0001         343.69348     -275.0072       2.7988297     -1170.9276      1287.8979    
ec    62500  6.25           0.0001         321.01157     -274.81245      2.6141221      196.08787      1285.971     
ec    62600  6.26           0.0001         261.42252     -274.31933      2.1288653      1693.689       1284.1176    
ec    62700  6.27           0.0001         303.511       -274.64876      2.4716082      2955.9521      1282.6018    
ec    62800  6.28           0.0001         366.98889     -275.15001      2.9885333      3821.3636      1281.6455    
ec    62900  6.29           0.0001         341.48664     -274.93789      2.7808586      4366.7851      1281.4002    
ec    63000  6.3            0.0001         359.25203     -275.08919      2.9255291      4017.4292      1281.9443    
ec    63100  6.31           0.0001         391.63854     -275.37516      3.189265       2812.2842      1283.2059    
ec    63200  6.32           0.0001         339.70131     -274.99302      2.76632        1306.4935      1284.9685    
ec    63300  6.33           0.0001         276.31175     -274.51963      2.2501141     -455.61781      1286.9513    
ec    63400  6.34           0.0001         261.85259     -274.43845      2.1323676     -2239.8355      1288.8314    
ec    63500  6.35           0.0001         288.90159     -274.69425      2.3526381     -3526.3271      1290.2893    
ec    63600  6.36           0.0001         318.47539     -274.97892      2.5934691     -3972.6044      1291.0976    
ec    63700  6.37           0.0001         298.77064     -274.87182      2.4330056     -3681.5577      1291.1805    
ec    63800  6.38           0.0001         310.212       -275.02258      2.5261771     -3172.5116      1290.5919    
ec    63900  6.39           0.0001         364.97464     -275.54328      2.9721305     -2505.424       1289.4348    
ec    64000  6.4            0.0001         318.27332     -275.25462      2.5918235     -1296.1075      1287.8497    
ec    64100  6.41           0.0001         239.08495     -274.68383      1.9469618      161.04778      1286.0599    
ec    64200  6.42           0.0001         278.33693     -275.06188      2.266606       1353.4812      1284.3258    
ec    64300  6.43           0.0001         321.69227     -275.47908      2.6196654      2419.5131      1282.8676    
ec    64400  6.44           0.0001         304.52018     -275.4021       2.4798263      3263.7801      1281.874     
ec    64500  6.45           0.0001         314.44509     -275.54056      2.5606487      3426.9452      1281.4825    
ec    64600  6.46           0.0001         282.36772     -275.33247      2.2994303      3021.4519      1281.7166    
ec    64700  6.47           0.0001         216.8157      -274.83418      1.7656146      2259.6568      1282.4976    
ec    64800  6.48           0.0001         221.74325     -274.89254      1.8057416      1214.5069      1283.68      
ec    64900  6.49           0.0001         237.96539     -275.03192      1.9378448      264.10181      1285.076     
ec    65000  6.5            0.0001         261.14348     -275.21893      2.1265929     -625.30814      1286.5092    
ec    65100  6.51           0.0001         326.50137     -275.74369      2.6588277     -1512.2538      1287.8153    
ec    65200  6.52           0.0001         332.71019     -275.7901       2.7093885     -2081.0553      1288.8395    
ec    65300  6.53           0.0001         285.30799     -275.40505      2.323374      -2462.0396      1289.4776    
ec    65400  6.54           0.0001         283.88389     -275.39326      2.311777      -2841.8703      1289.6592    
ec    65500  6.55           0.0001         267.82362     -275.26054      2.180992      -2725.4356      1289.3291    
ec    65600  6.56           0.0001         241.93717     -275.04454      1.9701885     -2184.6595      1288.5138    
ec    65700  6.57           0.0001         268.44665     -275.24868      2.1860655     -1557.0112      1287.3133    
ec    65800  6.58           0.0001         263.72922     -275.19313      2.1476497     -504.54217      1285.8559    
ec    65900  6.59           0.0001         259.07543     -275.13392      2.1097521      785.79324      1284.3353    
[...]
ec   584300  58.43          0.0001         268.09049     -274.93432      2.1831652     -6157.9053      1294.1018    
ec   584400  58.44          0.0001         274.8054      -275.02664      2.2378473     -6126.9137      1294.1018    
ec   584500  58.45          0.0001         311.91207     -275.37122      2.5400213     -6269.4999      1294.1018    
ec   584600  58.46          0.0001         287.92418     -275.22575      2.3446786     -6161.1148      1294.1018    
ec   584700  58.47          0.0001         260.29044     -275.04732      2.1196463     -6027.8398      1294.1018    
ec   584800  58.48          0.0001         310.42035     -275.5054       2.5278737     -6258.2332      1294.1018    
ec   584900  58.49          0.0001         294.92935     -275.44059      2.4017245     -6308.5534      1294.1018    
ec   585000  58.5           0.0001         233.44597     -274.99513      1.9010414     -6239.4658      1294.1018    
ec   585100  58.51          0.0001         246.54188     -275.14729      2.0076864     -6471.4283      1294.1018    
ec   585200  58.52          0.0001         286.08828     -275.51869      2.3297282     -6751.0502      1294.1018    
ec   585300  58.53          0.0001         240.66498     -275.19745      1.9598285     -6627.3968      1294.1018    
ec   585400  58.54          0.0001         243.63347     -275.25939      1.9840022     -6586.0545      1294.1018    
ec   585500  58.55          0.0001         290.96322     -275.68351      2.3694267     -6638.1633      1294.1018    
ec   585600  58.56          0.0001         266.68036     -275.52621      2.1716819     -6490.5432      1294.1018    
ec   585700  58.57          0.0001         236.20235     -275.31095      1.9234877     -6401.0146      1294.1018    
ec   585800  58.58          0.0001         254.98183     -275.49048      2.0764163     -6528.9187      1294.1018    
ec   585900  58.59          0.0001         244.44734     -275.42784      1.9906298     -6606.8297      1294.1018    
ec   586000  58.6           0.0001         238.97878     -275.39963      1.9460972     -6693.0629      1294.1018    
ec   586100  58.61          0.0001         269.90549     -275.66279      2.1979454     -6780.6953      1294.1018    
ec   586200  58.62          0.0001         254.44276     -275.54514      2.0720264     -6661.1771      1294.1018    
ec   586300  58.63          0.0001         228.48182     -275.33602      1.8606164     -6569.8362      1294.1018    
ec   586400  58.64          0.0001         249.75856     -275.50237      2.0338811     -6635.0587      1294.1018    
ec   586500  58.65          0.0001         247.7786      -275.46878      2.0177575     -6602.3147      1294.1018    
ec   586600  58.66          0.0001         226.59664     -275.26809      1.8452646     -6567.1309      1294.1018    
ec   586700  58.67          0.0001         257.46888     -275.47269      2.0966693     -6710.4803      1294.1018    
ec   586800  58.68          0.0001         280.70343     -275.58929      2.2858773     -6697.809       1294.1018    
ec   586900  58.69          0.0001         270.28399     -275.41583      2.2010277     -6475.8001      1294.1018    
ec   587000  58.7           0.0001         269.75123     -275.31442      2.1966892     -6303.739       1294.1018    
ec   587100  58.71          0.0001         273.76468     -275.24583      2.2293723     -6192.9462      1294.1018    
ec   587200  58.72          0.0001         279.59285     -275.19585      2.2768333     -6120.0955      1294.1018    
ec   587300  58.73          0.0001         282.09693     -275.1286       2.2972251     -6134.5874      1294.1018    
ec   587400  58.74          0.0001         271.13644     -274.96589      2.2079695     -6123.8572      1294.1018    
ec   587500  58.75          0.0001         285.81693     -275.02311      2.3275185     -6166.8469      1294.1018    
ec   587600  58.76          0.0001         337.05077     -275.38057      2.7447355     -6276.3922      1294.1018    
ec   587700  58.77          0.0001         302.5485      -275.05166      2.4637701     -6088.2456      1294.1018    
ec   587800  58.78          0.0001         266.54322     -274.72384      2.1705652     -5884.7167      1294.1018    
ec   587900  58.79          0.0001         309.16482     -275.03543      2.5176494     -5926.9804      1294.1018    
ec   588000  58.8           0.0001         308.49891     -274.99506      2.5122267     -5875.4623      1294.1018    
ec   588100  58.81          0.0001         287.74504     -274.79669      2.3432198     -5781.0464      1294.1018    
ec   588200  58.82          0.0001         334.24859     -275.14548      2.7219163     -5877.916       1294.1018    
ec   588300  58.83          0.0001         353.31854     -275.27389      2.8772104     -5897.9842      1294.1018    
ec   588400  58.84          0.0001         309.94407     -274.90415      2.5239952     -5781.7042      1294.1018    
ec   588500  58.85          0.0001         299.07885     -274.80325      2.4355155     -5772.6276      1294.1018    
ec   588600  58.86          0.0001         312.32047     -274.8986       2.5433471     -5850.2097      1294.1018    
ec   588700  58.87          0.0001         286.9928      -274.68141      2.3370941     -5799.927       1294.1018    
ec   588800  58.88          0.0001         308.34728     -274.84323      2.5109919     -5830.5498      1294.1018    
ec   588900  58.89          0.0001         335.31848     -275.05074      2.7306289     -5828.5237      1294.1018    
ec   589000  58.9           0.0001         325.57153     -274.96447      2.6512556     -5828.0236      1294.1018    
ec   589100  58.91          0.0001         312.49528     -274.85562      2.5447707     -5826.0636      1294.1018    
ec   589200  58.92          0.0001         324.1544      -274.95081      2.6397154     -5813.9695      1294.1018    
ec   589300  58.93          0.0001         307.54808     -274.81953      2.5044837     -5677.196       1294.1018    
ec   589400  58.94          0.0001         307.74996     -274.82667      2.5061277     -5649.0498      1294.1018    
ec   589500  58.95          0.0001         327.90383     -274.99867      2.6702485     -5716.1981      1294.1018    
ec   589600  58.96          0.0001         323.52854     -274.97595      2.6346188     -5698.0607      1294.1018    
ec   589700  58.97          0.0001         335.1242      -275.08902      2.7290468     -5760.7823      1294.1018    
ec   589800  58.98          0.0001         312.35655     -274.92886      2.5436409     -5751.3308      1294.1018    
ec   589900  58.99          0.0001         295.11865     -274.81534      2.403266      -5891.7496      1294.1018    
ec   590000  59             0.0001         303.22662     -274.90927      2.4692924     -6078.8205      1294.1018    
ec   590100  59.01          0.0001         289.70095     -274.82898      2.3591476     -6038.5343      1294.1018    
ec   590200  59.02          0.0001         272.12069     -274.71311      2.2159846     -5857.5687      1294.1018    
ec   590300  59.03          0.0001         334.11948     -275.24604      2.7208649     -5940.3068      1294.1018    
ec   590400  59.04          0.0001         343.40988     -275.36186      2.7965203     -5956.542       1294.1018    
ec   590500  59.05          0.0001         284.21096     -274.92399      2.3144405     -5797.2172      1294.1018    
ec   590600  59.06          0.0001         296.81381     -275.06742      2.4170704     -5888.1151      1294.1018    
ec   590700  59.07          0.0001         321.1685      -275.31272      2.6154001     -6068.8712      1294.1018    
ec   590800  59.08          0.0001         260.18797     -274.86343      2.1188119     -6020.8525      1294.1018    
ec   590900  59.09          0.0001         261.95254     -274.91445      2.1331814     -6120.0466      1294.1018    
ec   591000  59.1           0.0001         328.27841     -275.494        2.6732988     -6366.4074      1294.1018    
ec   591100  59.11          0.0001         296.03771     -275.27783      2.4107503     -6277.1472      1294.1018    
ec   591200  59.12          0.0001         254.00087     -274.97411      2.0684279     -6179.3962      1294.1018    
ec   591300  59.13          0.0001         276.39663     -275.18911      2.2508053     -6321.6901      1294.1018    
ec   591400  59.14          0.0001         265.53718     -275.13077      2.1623726     -6334.1946      1294.1018    
ec   591500  59.15          0.0001         254.84483     -275.06721      2.0753006     -6278.6767      1294.1018    
ec   591600  59.16          0.0001         290.68469     -275.37824      2.3671586     -6289.2316      1294.1018    
ec   591700  59.17          0.0001         297.92205     -275.45675      2.4260952     -6196.101       1294.1018    
ec   591800  59.18          0.0001         287.26532     -275.389        2.3393133     -6184.171       1294.1018    
ec   591900  59.19          0.0001         293.38725     -275.45696      2.3891665     -6341.2463      1294.1018    
ec   592000  59.2           0.0001         263.70715     -275.23208      2.14747       -6312.3328      1294.1018    
ec   592100  59.21          0.0001         239.32877     -275.04442      1.9489473     -6275.3748      1294.1018    
ec   592200  59.22          0.0001         256.19127     -275.18538      2.0862652     -6402.2843      1294.1018    
ec   592300  59.23          0.0001         273.19518     -275.32152      2.2247347     -6540.0925      1294.1018    
ec   592400  59.24          0.0001         269.01547     -275.28027      2.1906977     -6505.1371      1294.1018    
ec   592500  59.25          0.0001         277.55032     -275.33674      2.2602003     -6388.1094      1294.1018    
ec   592600  59.26          0.0001         279.69031     -275.33449      2.277627      -6249.7895      1294.1018    
ec   592700  59.27          0.0001         277.83755     -275.29258      2.2625393     -6157.5766      1294.1018    
ec   592800  59.28          0.0001         279.72593     -275.27144      2.2779171     -6148.2068      1294.1018    
ec   592900  59.29          0.0001         257.20053     -275.04172      2.094484      -6035.6372      1294.1018    
ec   593000  59.3           0.0001         280.0251      -275.16747      2.2803533     -6029.5036      1294.1018    
ec   593100  59.31          0.0001         339.7858      -275.56712      2.767008      -6154.9657      1294.1018    
ec   593200  59.32          0.0001         302.59462     -275.16924      2.4641457     -6077.4776      1294.1018    
ec   593300  59.33          0.0001         272.49173     -274.83953      2.2190062     -6070.652       1294.1018    
ec   593400  59.34          0.0001         309.41637     -275.05034      2.5196979     -6121.5909      1294.1018    
ec   593500  59.35          0.0001         297.57106     -274.86376      2.4232369     -5900.1634      1294.1018    
ec   593600  59.36          0.0001         249.90245     -274.40486      2.0350529     -5572.9203      1294.1018    
ec   593700  59.37          0.0001         314.44153     -274.86345      2.5606197     -5640.0825      1294.1018    
ec   593800  59.38          0.0001         378.064       -275.31111      3.0787222     -5739.3631      1294.1018    
ec   593900  59.39          0.0001         345.14823     -274.99463      2.8106764     -5553.3944      1294.1018    
ec   594000  59.4           0.0001         332.07381     -274.85888      2.7042062     -5408.0041      1294.1018    
ec   594100  59.41          0.0001         337.91125     -274.88681      2.7517428     -5489.3684      1294.1018    
ec   594200  59.42          0.0001         307.80646     -274.63065      2.5065878     -5585.3498      1294.1018    
ec   594300  59.43          0.0001         312.49369     -274.6613       2.5447577     -5675.5744      1294.1018    
ec   594400  59.44          0.0001         335.50388     -274.84376      2.7321386     -5643.4267      1294.1018    
ec   594500  59.45          0.0001         330.19289     -274.80151      2.6888892     -5563.7613      1294.1018    
ec   594600  59.46          0.0001         332.91056     -274.83003      2.7110203     -5716.0766      1294.1018    
ec   594700  59.47          0.0001         329.43284     -274.81381      2.6826998     -5853.8928      1294.1018    
ec   594800  59.48          0.0001         301.79053     -274.60425      2.4575977     -5696.345       1294.1018    
ec   594900  59.49          0.0001         323.30374     -274.79571      2.6327882     -5526.2204      1294.1018    
ec   595000  59.5           0.0001         329.57435     -274.86803      2.6838522     -5368.1434      1294.1018    
ec   595100  59.51          0.0001         319.61174     -274.81237      2.6027228     -5305.1426      1294.1018    
ec   595200  59.52          0.0001         351.95246     -275.1069       2.8660858     -5549.4363      1294.1018    
ec   595300  59.53          0.0001         349.70066     -275.13167      2.8477485     -5690.0497      1294.1018    
ec   595400  59.54          0.0001         305.96154     -274.82312      2.4915638     -5685.0428      1294.1018    
ec   595500  59.55          0.0001         320.10954     -274.98606      2.6067765     -5935.6813      1294.1018    
ec   595600  59.56          0.0001         293.85766     -274.82317      2.3929972     -6060.4106      1294.1018    
ec   595700  59.57          0.0001         252.48624     -274.52799      2.0560937     -6018.1027      1294.1018    
ec   595800  59.58          0.0001         310.00256     -275.03285      2.5244715     -6057.704       1294.1018    
ec   595900  59.59          0.0001         338.26736     -275.30788      2.7546427     -5916.5496      1294.1018    
ec   596000  59.6           0.0001         281.39659     -274.89007      2.291522      -5658.7636      1294.1018    
ec   596100  59.61          0.0001         313.1815      -275.18842      2.5503588     -5862.7151      1294.1018    
ec   596200  59.62          0.0001         332.38926     -275.39108      2.7067751     -6032.7577      1294.1018    
ec   596300  59.63          0.0001         259.34275     -274.83946      2.1119289     -5808.3136      1294.1018    
ec   596400  59.64          0.0001         258.02436     -274.8586       2.1011928     -5766.2076      1294.1018    
ec   596500  59.65          0.0001         331.13198     -275.4824       2.6965366     -6100.8874      1294.1018    
ec   596600  59.66          0.0001         305.49137     -275.30723      2.4877351     -6242.4029      1294.1018    
ec   596700  59.67          0.0001         260.71653     -274.96994      2.1231161     -6198.4946      1294.1018    
ec   596800  59.68          0.0001         296.38785     -275.2817       2.4136016     -6256.7711      1294.1018    
ec   596900  59.69          0.0001         283.43944     -275.19649      2.3081576     -6192.0218      1294.1018    
ec   597000  59.7           0.0001         249.51847     -274.93468      2.031926      -6192.0936      1294.1018    
ec   597100  59.71          0.0001         267.5222      -275.08836      2.1785373     -6314.1962      1294.1018    
ec   597200  59.72          0.0001         286.79137     -275.24782      2.3354537     -6213.1171      1294.1018    
ec   597300  59.73          0.0001         292.15941     -275.29183      2.3791678     -6010.0814      1294.1018    
ec   597400  59.74          0.0001         305.03184     -275.39589      2.483993      -6019.7902      1294.1018    
ec   597500  59.75          0.0001         286.12673     -275.2415       2.3300413     -6057.3579      1294.1018    
ec   597600  59.76          0.0001         273.38318     -275.13535      2.2262657     -6075.3037      1294.1018    
ec   597700  59.77          0.0001         299.09668     -275.33887      2.4356607     -6128.0432      1294.1018    
ec   597800  59.78          0.0001         263.16937     -275.03947      2.1430906     -5969.5625      1294.1018    
ec   597900  59.79          0.0001         259.40747     -274.99824      2.112456      -6062.458       1294.1018    
ec   598000  59.8           0.0001         293.8768      -275.26187      2.3931531     -6376.6642      1294.1018    
ec   598100  59.81          0.0001         292.77446     -275.23317      2.3841763     -6447.0771      1294.1018    
ec   598200  59.82          0.0001         285.45691     -275.15324      2.3245867     -6250.6992      1294.1018    
ec   598300  59.83          0.0001         301.90378     -275.26404      2.4585199     -6073.8909      1294.1018    
ec   598400  59.84          0.0001         263.31695     -274.92626      2.1442924     -5859.97        1294.1018    
ec   598500  59.85          0.0001         277.34474     -275.01371      2.2585261     -5929.3666      1294.1018    
ec   598600  59.86          0.0001         324.12586     -275.35838      2.639483      -6027.7667      1294.1018    
ec   598700  59.87          0.0001         294.2328      -275.0785       2.3960522     -5831.505       1294.1018    
ec   598800  59.88          0.0001         288.62788     -274.99637      2.3504091     -5788.8649      1294.1018    
ec   598900  59.89          0.0001         337.85203     -275.35193      2.7512606     -6052.2536      1294.1018    
ec   599000  59.9           0.0001         305.99619     -275.04376      2.491846      -6064.0348      1294.1018    
ec   599100  59.91          0.0001         250.95077     -274.55038      2.0435898     -5777.4655      1294.1018    
ec   599200  59.92          0.0001         313.33142     -274.99586      2.5515797     -5669.2648      1294.1018    
ec   599300  59.93          0.0001         340.46217     -275.12705      2.772516      -5577.6958      1294.1018    
ec   599400  59.94          0.0001         309.5646      -274.77626      2.520905      -5659.6032      1294.1018    
ec   599500  59.95          0.0001         325.40646     -274.79606      2.6499115     -5850.5721      1294.1018    
ec   599600  59.96          0.0001         351.27408     -274.87724      2.8605615     -5730.9833      1294.1018    
ec   599700  59.97          0.0001         341.67633     -274.67386      2.7824033     -5325.8849      1294.1018    
ec   599800  59.98          0.0001         351.9796      -274.64636      2.8663068     -5157.1861      1294.1018    
ec   599900  59.99          0.0001         347.01413     -274.51637      2.8258711     -5134.1083      1294.1018    
Fix halt condition for fix-id myhalt met on step 600000 with value 60 (../fix_halt.cpp:240)
ec   600000  60             0.0001         360.37936     -274.55908      2.9347094     -5150.9207      1294.1018    
Loop time of 10.4063 on 2 procs for 300000 steps with 64 atoms

Performance: 249.081 ns/day, 0.096 hours/ns, 28828.779 timesteps/s, 1.845 Matom-step/s
99.9% CPU use with 2 MPI tasks x no OpenMP threads

MPI task timing breakdown:
Section |  min time  |  avg time  |  max time  |%varavg| %total
---------------------------------------------------------------
Pair    | 6.5626     | 7.22       | 7.8775     |  24.5 | 69.38
Neigh   | 0          | 0          | 0          |   0.0 |  0.00
Comm    | 2.0345     | 2.6842     | 3.3338     |  39.7 | 25.79
Output  | 0.01683    | 0.026304   | 0.035778   |   5.8 |  0.25
Modify  | 0.28011    | 0.28349    | 0.28688    |   0.6 |  2.72
Other   |            | 0.1922     |            |       |  1.85

Nlocal:             32 ave          35 max          29 min
Histogram: 1 0 0 0 0 0 0 0 0 1
Nghost:            444 ave         447 max         441 min
Histogram: 1 0 0 0 0 0 0 0 0 1
Neighs:              0 ave           0 max           0 min
Histogram: 2 0 0 0 0 0 0 0 0 0
FullNghs:         1096 ave        1200 max         992 min
Histogram: 1 0 0 0 0 0 0 0 0 1

Total # of neighbors = 2192
Ave neighs/atom = 34.25
Neighbor list builds = 0
Dangerous builds = 0

write_data cell.data_${temp}
write_data cell.data_300
System init for write_data ...
Total wall time: 0:00:22
