

units metal
timestep 0.001
boundary p p p

lattice         diamond 5.43
Lattice spacing in x,y,z = 5.43 5.43 5.43
region          box block 0 ${N} 0 ${N} 0 ${N}
region          box block 0 4 0 ${N} 0 ${N}
region          box block 0 4 0 4 0 ${N}
region          box block 0 4 0 4 0 4
create_box      1 box
Created orthogonal box = (0 0 0) to (21.72 21.72 21.72)
  1 by 1 by 2 MPI processor grid
create_atoms    1 box
Created 512 atoms
  using lattice units in orthogonal box = (0 0 0) to (21.72 21.72 21.72)
  create_atoms CPU = 0.000 seconds

timestep ${dt}
timestep 0.0001

mass 1 28.0855
labelmap atom 1 Si

pair_style sw
pair_coeff * * Si.sw Si
Reading sw potential file Si.sw with DATE: 2007-06-11

thermo 100
thermo_style	custom step time dt temp pe ke press vol
thermo_modify	line one flush yes format 1 "ec %8lu" flush yes


velocity all create 300.0 4928459 mom yes rot yes dist gaussian

variable t equal time
fix myhalt all halt 100 v_t >= 30.0 error continue

fix NVE all nve

run 10000000

CITE-CITE-CITE-CITE-CITE-CITE-CITE-CITE-CITE-CITE-CITE-CITE-CITE

Your simulation uses code contributions which should be cited:

- Type Label Framework: https://doi.org/10.1021/acs.jpcb.3c08419

@Article{Gissinger24,
 author = {Jacob R. Gissinger, Ilia Nikiforov, Yaser Afshar, Brendon Waters, Moon-ki Choi, Daniel S. Karls, Alexander Stukowski, Wonpil Im, Hendrik Heinz, Axel Kohlmeyer, and Ellad B. Tadmor},
 title = {Type Label Framework for Bonded Force Fields in LAMMPS},
 journal = {J. Phys. Chem. B},
 year =    2024,
 volume =  128,
 number =  13,
 pages =   {3282--3297}
}

CITE-CITE-CITE-CITE-CITE-CITE-CITE-CITE-CITE-CITE-CITE-CITE-CITE

Neighbor list info ...
  update: every = 1 steps, delay = 0 steps, check = yes
  max neighbors/atom: 2000, page size: 100000
  master list distance cutoff = 5.77118
  ghost atom cutoff = 5.77118
  binsize = 2.88559, bins = 8 8 8
  1 neighbor lists, perpetual/occasional/extra = 1 0 0
  (1) pair sw, perpetual
      attributes: full, newton on
      pair build: full/bin/atomonly
      stencil: full/bin/3d
      bin: standard
Per MPI rank memory allocation (min/avg/max) = 3.237 | 3.237 | 3.237 Mbytes
   Step          Time            Dt            Temp          PotEng         KinEng         Press          Volume    
ec        0  0              0.0001         300           -2220.3383      19.81558       2598.169       10246.592    
ec      100  0.01           0.0001         160.47406     -2211.1221      10.599622      2901.8436      10246.592    
ec      200  0.02           0.0001         89.119373     -2206.409       5.886507       2697.1915      10246.592    
ec      300  0.03           0.0001         177.64334     -2212.2563      11.733686      1968.7603      10246.592    
ec      400  0.04           0.0001         114.86979     -2208.1099      7.587372       2053.8616      10246.592    
ec      500  0.05           0.0001         90.635153     -2206.5091      5.9866272      2204.3304      10246.592    
ec      600  0.06           0.0001         179.06659     -2212.3503      11.827695      2044.5947      10246.592    
ec      700  0.07           0.0001         139.16426     -2209.7146      9.1920687      2440.8144      10246.592    
ec      800  0.08           0.0001         136.85648     -2209.5622      9.0396352      2669.4471      10246.592    
ec      900  0.09           0.0001         206.54779     -2214.1655      13.642881      2445.6381      10246.592    
ec     1000  0.1            0.0001         141.99474     -2209.9016      9.3790273      2564.0336      10246.592    
ec     1100  0.11           0.0001         120.91008     -2208.5089      7.9863446      2497.6816      10246.592    
ec     1200  0.12           0.0001         182.31528     -2212.5649      12.042277      2179.8224      10246.592    
ec     1300  0.13           0.0001         131.93056     -2209.2368      8.7142687      2397.3514      10246.592    
ec     1400  0.14           0.0001         124.50394     -2208.7463      8.2237264      2492.2052      10246.592    
ec     1500  0.15           0.0001         190.208       -2213.0862      12.563607      2222.4125      10246.592    
ec     1600  0.16           0.0001         135.98347     -2209.5045      8.9819713      2416.2798      10246.592    
ec     1700  0.17           0.0001         116.58701     -2208.2233      7.7007972      2547.4696      10246.592    
ec     1800  0.18           0.0001         185.12215     -2212.7503      12.227676      2302.2024      10246.592    
ec     1900  0.19           0.0001         154.4338      -2210.7232      10.200651      2426.4966      10246.592    
ec     2000  0.2            0.0001         125.64167     -2208.8214      8.2988755      2580.1604      10246.592    
ec     2100  0.21           0.0001         171.53486     -2211.8528      11.330209      2390.5689      10246.592    
ec     2200  0.22           0.0001         155.45294     -2210.7905      10.267967      2425.1597      10246.592    
ec     2300  0.23           0.0001         138.26767     -2209.6554      9.1328473      2508.9026      10246.592    
ec     2400  0.24           0.0001         169.05799     -2211.6892      11.166607      2332.8067      10246.592    
ec     2500  0.25           0.0001         139.71791     -2209.7512      9.2286382      2346.4235      10246.592    
ec     2600  0.26           0.0001         120.64623     -2208.4915      7.9689165      2416.9825      10246.592    
ec     2700  0.27           0.0001         163.35349     -2211.3124      10.789814      2297.9474      10246.592    
ec     2800  0.28           0.0001         162.58843     -2211.2619      10.73928       2333.3101      10246.592    
ec     2900  0.29           0.0001         138.17266     -2209.6491      9.1265712      2437.012       10246.592    
ec     3000  0.3            0.0001         150.97709     -2210.4949      9.972329       2353.5627      10246.592    
ec     3100  0.31           0.0001         149.59701     -2210.4037      9.8811718      2373.1786      10246.592    
ec     3200  0.32           0.0001         144.31978     -2210.0552      9.5326003      2496.8625      10246.592    
ec     3300  0.33           0.0001         163.26314     -2211.3064      10.783846      2478.7713      10246.592    
ec     3400  0.34           0.0001         159.19719     -2211.0379      10.515283      2459.4162      10246.592    
ec     3500  0.35           0.0001         145.40018     -2210.1265      9.6039632      2476.3975      10246.592    
ec     3600  0.36           0.0001         147.52442     -2210.2668      9.7442733      2430.5368      10246.592    
ec     3700  0.37           0.0001         147.30986     -2210.2527      9.7301013      2365.2572      10246.592    
ec     3800  0.38           0.0001         149.17297     -2210.3757      9.8531631      2278.2075      10246.592    
ec     3900  0.39           0.0001         148.91214     -2210.3585      9.8359348      2186.3324      10246.592    
ec     4000  0.4            0.0001         128.88014     -2209.0353      8.5127826      2234.5201      10246.592    
ec     4100  0.41           0.0001         130.46584     -2209.1401      8.6175207      2353.288       10246.592    
ec     4200  0.42           0.0001         156.68033     -2210.8716      10.349039      2450.3436      10246.592    
ec     4300  0.43           0.0001         165.5646      -2211.4584      10.935862      2574.3132      10246.592    
ec     4400  0.44           0.0001         164.69304     -2211.4009      10.878294      2654.7358      10246.592    
ec     4500  0.45           0.0001         166.63172     -2211.5289      11.006348      2586.1055      10246.592    
ec     4600  0.46           0.0001         158.95641     -2211.0219      10.499378      2462.9311      10246.592    
ec     4700  0.47           0.0001         146.36194     -2210.1901      9.6674894      2383.5865      10246.592    
ec     4800  0.48           0.0001         134.17558     -2209.3851      8.8625568      2330.3947      10246.592    
ec     4900  0.49           0.0001         134.71769     -2209.4209      8.8983641      2277.3355      10246.592    
ec     5000  0.5            0.0001         152.16249     -2210.5732      10.050627      2287.3936      10246.592    
ec     5100  0.51           0.0001         153.95248     -2210.6914      10.168859      2413.5311      10246.592    
ec     5200  0.52           0.0001         149.85031     -2210.4205      9.8979029      2481.2275      10246.592    
ec     5300  0.53           0.0001         158.79733     -2211.0115      10.488871      2409.0667      10246.592    
ec     5400  0.54           0.0001         141.7276      -2209.884       9.3613824      2395.6122      10246.592    
ec     5500  0.55           0.0001         129.82787     -2209.0979      8.5753816      2400.3803      10246.592    
ec     5600  0.56           0.0001         162.85719     -2211.2796      10.757033      2321.0139      10246.592    
ec     5700  0.57           0.0001         163.22715     -2211.3041      10.781469      2363.7927      10246.592    
ec     5800  0.58           0.0001         136.30874     -2209.526       9.0034557      2447.7318      10246.592    
ec     5900  0.59           0.0001         150.845       -2210.4862      9.9636038      2378.2367      10246.592    
ec     6000  0.6            0.0001         156.62203     -2210.8678      10.345188      2358.1991      10246.592    
ec     6100  0.61           0.0001         137.80244     -2209.6247      9.1021179      2418.2541      10246.592    
ec     6200  0.62           0.0001         150.18882     -2210.4428      9.9202621      2372.1063      10246.592    
ec     6300  0.63           0.0001         152.80457     -2210.6156      10.093037      2388.0662      10246.592    
ec     6400  0.64           0.0001         144.26065     -2210.0512      9.5286952      2473.4591      10246.592    
ec     6500  0.65           0.0001         167.18563     -2211.5655      11.042934      2471.2525      10246.592    
ec     6600  0.66           0.0001         161.70541     -2211.2035      10.680955      2525.4607      10246.592    
ec     6700  0.67           0.0001         140.55767     -2209.8067      9.2841058      2524.1584      10246.592    
ec     6800  0.68           0.0001         159.9951      -2211.0906      10.567986      2323.6283      10246.592    
ec     6900  0.69           0.0001         150.33067     -2210.4522      9.9296317      2255.4425      10246.592    
ec     7000  0.7            0.0001         119.14761     -2208.3925      7.8699298      2324.6009      10246.592    
ec     7100  0.71           0.0001         143.81881     -2210.0221      9.4995108      2274.7569      10246.592    
ec     7200  0.72           0.0001         157.87685     -2210.9507      10.428071      2318.2699      10246.592    
ec     7300  0.73           0.0001         139.74114     -2209.7527      9.2301725      2487.9932      10246.592    
ec     7400  0.74           0.0001         158.23393     -2210.9742      10.451657      2516.909       10246.592    
ec     7500  0.75           0.0001         169.5578      -2211.7222      11.199621      2517.9601      10246.592    
ec     7600  0.76           0.0001         152.83388     -2210.6175      10.094973      2514.0256      10246.592    
ec     7700  0.77           0.0001         148.87711     -2210.3562      9.8336207      2400.084       10246.592    
ec     7800  0.78           0.0001         142.26836     -2209.9197      9.3971         2324.8994      10246.592    
ec     7900  0.79           0.0001         140.75815     -2209.8199      9.2973483      2320.0575      10246.592    
ec     8000  0.8            0.0001         159.07046     -2211.0295      10.506912      2316.2629      10246.592    
ec     8100  0.81           0.0001         142.6383      -2209.9441      9.4215356      2442.8674      10246.592    
ec     8200  0.82           0.0001         135.05218     -2209.443       8.9204578      2500.3834      10246.592    
ec     8300  0.83           0.0001         172.5275      -2211.9184      11.395775      2376.0617      10246.592    
ec     8400  0.84           0.0001         164.1399      -2211.3643      10.841758      2398.4519      10246.592    
ec     8500  0.85           0.0001         129.8394      -2209.0987      8.5761433      2459.6391      10246.592    
ec     8600  0.86           0.0001         140.57457     -2209.8078      9.285222       2332.0956      10246.592    
ec     8700  0.87           0.0001         147.46979     -2210.2632      9.7406648      2288.3509      10246.592    
ec     8800  0.88           0.0001         144.74451     -2210.0832      9.5606547      2383.5952      10246.592    
ec     8900  0.89           0.0001         161.33072     -2211.1788      10.656206      2434.0929      10246.592    
ec     9000  0.9            0.0001         156.10309     -2210.8335      10.310911      2492.4085      10246.592    
ec     9100  0.91           0.0001         149.966       -2210.4281      9.9055442      2481.5939      10246.592    
ec     9200  0.92           0.0001         159.32662     -2211.0464      10.523831      2410.8169      10246.592    
ec     9300  0.93           0.0001         140.7158      -2209.8171      9.2945507      2456.3018      10246.592    
ec     9400  0.94           0.0001         138.58771     -2209.6765      9.1539864      2430.4936      10246.592    
ec     9500  0.95           0.0001         162.12645     -2211.2314      10.708766      2307.0009      10246.592    
ec     9600  0.96           0.0001         149.06373     -2210.3685      9.8459474      2364.9156      10246.592    
ec     9700  0.97           0.0001         146.23476     -2210.1816      9.6590888      2451.1547      10246.592    
ec     9800  0.98           0.0001         169.91677     -2211.7459      11.223331      2421.838       10246.592    
ec     9900  0.99           0.0001         143.53936     -2210.0036      9.4810526      2499.5434      10246.592    
ec    10000  1              0.0001         129.08717     -2209.049       8.5264573      2512.8458      10246.592    
ec    10100  1.01           0.0001         163.74216     -2211.3381      10.815486      2349.9333      10246.592    
ec    10200  1.02           0.0001         156.40139     -2210.8532      10.330614      2298.0525      10246.592    
ec    10300  1.03           0.0001         132.82288     -2209.2958      8.7732081      2274.9234      10246.592    
ec    10400  1.04           0.0001         137.84622     -2209.6276      9.1050095      2202.4192      10246.592    
ec    10500  1.05           0.0001         131.1124      -2209.1828      8.6602276      2311.942       10246.592    
ec    10600  1.06           0.0001         145.92426     -2210.1611      9.6385798      2470.6104      10246.592    
ec    10700  1.07           0.0001         186.41815     -2212.8359      12.313279      2528.4035      10246.592    
ec    10800  1.08           0.0001         167.93125     -2211.6148      11.092184      2670.9838      10246.592    
ec    10900  1.09           0.0001         145.76683     -2210.1507      9.6281812      2665.3151      10246.592    
ec    11000  1.1            0.0001         161.212       -2211.171       10.648365      2425.8027      10246.592    
ec    11100  1.11           0.0001         148.54717     -2210.3344      9.8118281      2289.7124      10246.592    
ec    11200  1.12           0.0001         128.94595     -2209.0397      8.5171297      2240.208       10246.592    
ec    11300  1.13           0.0001         139.35158     -2209.727       9.2044417      2185.1026      10246.592    
ec    11400  1.14           0.0001         135.97443     -2209.5039      8.9813739      2317.5402      10246.592    
ec    11500  1.15           0.0001         144.20183     -2210.0474      9.52481        2474.33        10246.592    
ec    11600  1.16           0.0001         173.8385      -2212.005       11.482369      2500.8792      10246.592    
ec    11700  1.17           0.0001         163.67553     -2211.3337      10.811085      2568.7352      10246.592    
ec    11800  1.18           0.0001         144.79131     -2210.0863      9.5637457      2571.3096      10246.592    
ec    11900  1.19           0.0001         160.12506     -2211.0992      10.57657       2383.3374      10246.592    
ec    12000  1.2            0.0001         151.1835      -2210.5085      9.9859624      2295.8051      10246.592    
ec    12100  1.21           0.0001         129.95405     -2209.1063      8.5837161      2334.2128      10246.592    
ec    12200  1.22           0.0001         144.12803     -2210.0425      9.5199349      2322.9303      10246.592    
ec    12300  1.23           0.0001         150.56268     -2210.4675      9.9449563      2368.1106      10246.592    
ec    12400  1.24           0.0001         144.99013     -2210.0994      9.5768783      2441.9546      10246.592    
ec    12500  1.25           0.0001         158.95929     -2211.0221      10.499568      2424.8484      10246.592    
ec    12600  1.26           0.0001         157.44948     -2210.9224      10.399843      2451.0213      10246.592    
ec    12700  1.27           0.0001         144.48825     -2210.0663      9.5437283      2500.8399      10246.592    
ec    12800  1.28           0.0001         157.46354     -2210.9233      10.400772      2434.2523      10246.592    
ec    12900  1.29           0.0001         156.3872      -2210.8523      10.329677      2393.5544      10246.592    
ec    13000  1.3            0.0001         139.17784     -2209.7155      9.1929652      2379.9491      10246.592    
ec    13100  1.31           0.0001         141.63305     -2209.8777      9.3551366      2302.7127      10246.592    
ec    13200  1.32           0.0001         140.08149     -2209.7752      9.2526532      2303.1729      10246.592    
ec    13300  1.33           0.0001         135.11923     -2209.4474      8.9248867      2384.655       10246.592    
ec    13400  1.34           0.0001         158.62117     -2210.9998      10.477235      2425.5109      10246.592    
ec    13500  1.35           0.0001         170.60177     -2211.7912      11.268577      2506.4822      10246.592    
ec    13600  1.36           0.0001         160.20757     -2211.1046      10.58202       2556.0199      10246.592    
ec    13700  1.37           0.0001         155.19058     -2210.7732      10.250638      2481.0197      10246.592    
ec    13800  1.38           0.0001         140.68236     -2209.8149      9.292342       2433.7645      10246.592    
ec    13900  1.39           0.0001         135.56444     -2209.4768      8.9542938      2380.7904      10246.592    
ec    14000  1.4            0.0001         161.44961     -2211.1866      10.664059      2257.8855      10246.592    
ec    14100  1.41           0.0001         157.59897     -2210.9323      10.409717      2331.5516      10246.592    
ec    14200  1.42           0.0001         133.95818     -2209.3707      8.848197       2513.1142      10246.592    
ec    14300  1.43           0.0001         148.53047     -2210.3333      9.810725       2504.4286      10246.592    
ec    14400  1.44           0.0001         162.62283     -2211.2641      10.741552      2451.7173      10246.592    
ec    14500  1.45           0.0001         149.81937     -2210.4184      9.8958589      2463.1648      10246.592    
ec    14600  1.46           0.0001         148.60262     -2210.3381      9.8154908      2375.1368      10246.592    
ec    14700  1.47           0.0001         144.55135     -2210.0705      9.5478963      2287.5348      10246.592    
ec    14800  1.48           0.0001         136.53512     -2209.541       9.018409       2283.6169      10246.592    
ec    14900  1.49           0.0001         147.46812     -2210.2631      9.7405547      2300.8949      10246.592    
ec    15000  1.5            0.0001         147.45089     -2210.262       9.7394168      2415.4159      10246.592    
ec    15100  1.51           0.0001         145.61958     -2210.141       9.6184548      2508.3517      10246.592    
ec    15200  1.52           0.0001         166.73175     -2211.5355      11.012954      2441.4961      10246.592    
ec    15300  1.53           0.0001         161.33825     -2211.1793      10.656704      2436.0433      10246.592    
ec    15400  1.54           0.0001         139.28119     -2209.7223      9.199792       2487.0203      10246.592    
ec    15500  1.55           0.0001         151.96274     -2210.56        10.037433      2405.3277      10246.592    
ec    15600  1.56           0.0001         154.4268      -2210.7228      10.200189      2394.2364      10246.592    
ec    15700  1.57           0.0001         136.54007     -2209.5413      9.018736       2495.3816      10246.592    
ec    15800  1.58           0.0001         153.1828      -2210.6406      10.11802       2454.6327      10246.592    
ec    15900  1.59           0.0001         166.52133     -2211.5216      10.999056      2397.2067      10246.592    
ec    16000  1.6            0.0001         143.68258     -2210.0131      9.4905124      2450.8307      10246.592    
ec    16100  1.61           0.0001         143.43944     -2209.997       9.4744525      2416.7389      10246.592    
ec    16200  1.62           0.0001         158.63094     -2211.0005      10.47788       2351.4666      10246.592    
ec    16300  1.63           0.0001         151.863       -2210.5534      10.030845      2355.4477      10246.592    
ec    16400  1.64           0.0001         143.18143     -2209.98        9.4574105      2336.4537      10246.592    
ec    16500  1.65           0.0001         137.46593     -2209.6025      9.0798903      2361.06        10246.592    
ec    16600  1.66           0.0001         143.2086      -2209.9818      9.459205       2415.8426      10246.592    
ec    16700  1.67           0.0001         163.83412     -2211.3441      10.821561      2400.8711      10246.592    
ec    16800  1.68           0.0001         155.06502     -2210.7649      10.242344      2439.206       10246.592    
ec    16900  1.69           0.0001         141.30345     -2209.8559      9.3333659      2469.2959      10246.592    
ec    17000  1.7            0.0001         162.16944     -2211.2342      10.711605      2360.8378      10246.592    
ec    17100  1.71           0.0001         148.86911     -2210.3557      9.833093       2386.8197      10246.592    
ec    17200  1.72           0.0001         126.68118     -2208.8901      8.3675371      2468.4411      10246.592    
ec    17300  1.73           0.0001         160.01189     -2211.0917      10.569095      2347.7133      10246.592    
ec    17400  1.74           0.0001         159.85782     -2211.0815      10.558918      2351.9611      10246.592    
ec    17500  1.75           0.0001         129.67885     -2209.0881      8.5655388      2491.7065      10246.592    
ec    17600  1.76           0.0001         154.64188     -2210.737       10.214396      2417.2189      10246.592    
ec    17700  1.77           0.0001         161.96148     -2211.2205      10.697869      2358.6386      10246.592    
ec    17800  1.78           0.0001         133.36089     -2209.3313      8.8087449      2445.2788      10246.592    
ec    17900  1.79           0.0001         155.23077     -2210.7759      10.253293      2414.26        10246.592    
ec    18000  1.8            0.0001         168.62023     -2211.6603      11.137692      2433.9244      10246.592    
ec    18100  1.81           0.0001         147.30487     -2210.2523      9.7297713      2544.3037      10246.592    
ec    18200  1.82           0.0001         154.94524     -2210.757       10.234433      2489.5886      10246.592    
ec    18300  1.83           0.0001         152.42275     -2210.5904      10.067817      2425.4513      10246.592    
ec    18400  1.84           0.0001         137.06657     -2209.5761      9.0535118      2421.0955      10246.592    
ec    18500  1.85           0.0001         154.79243     -2210.7469      10.224339      2312.0273      10246.592    
ec    18600  1.86           0.0001         147.27024     -2210.2501      9.727484       2290.507       10246.592    
ec    18700  1.87           0.0001         128.09054     -2208.9832      8.4606277      2356.8787      10246.592    
ec    18800  1.88           0.0001         152.41371     -2210.5898      10.06722       2336.468       10246.592    
ec    18900  1.89           0.0001         153.86876     -2210.6859      10.163329      2433.6684      10246.592    
ec    19000  1.9            0.0001         149.60639     -2210.4043      9.8817916      2543.8853      10246.592    
ec    19100  1.91           0.0001         175.1795      -2212.0935      11.570945      2464.8773      10246.592    
ec    19200  1.92           0.0001         157.27649     -2210.911       10.388416      2416.2751      10246.592    
ec    19300  1.93           0.0001         127.04764     -2208.9143      8.3917426      2406.1938      10246.592    
ec    19400  1.94           0.0001         147.92545     -2210.2933      9.770762       2299.335       10246.592    
ec    19500  1.95           0.0001         151.79026     -2210.5486      10.02604       2297.7409      10246.592    
ec    19600  1.96           0.0001         133.62962     -2209.349       8.8264947      2362.8233      10246.592    
ec    19700  1.97           0.0001         144.72172     -2210.0817      9.5591492      2332.8968      10246.592    
ec    19800  1.98           0.0001         156.70036     -2210.8729      10.350362      2371.1967      10246.592    
ec    19900  1.99           0.0001         156.1773      -2210.8384      10.315813      2496.663       10246.592    
ec    20000  2              0.0001         156.7854      -2210.8786      10.355979      2524.7865      10246.592    
ec    20100  2.01           0.0001         149.5334      -2210.3995      9.87697        2501.672       10246.592    
ec    20200  2.02           0.0001         154.79203     -2210.7469      10.224313      2484.8491      10246.592    
ec    20300  2.03           0.0001         157.70991     -2210.9396      10.417044      2499.0249      10246.592    
ec    20400  2.04           0.0001         151.5244      -2210.531       10.00848       2468.7817      10246.592    
ec    20500  2.05           0.0001         154.35954     -2210.7183      10.195746      2359.576       10246.592    
ec    20600  2.06           0.0001         139.76522     -2209.7543      9.2317628      2342.6659      10246.592    
ec    20700  2.07           0.0001         127.84942     -2208.9673      8.4447017      2374.844       10246.592    
ec    20800  2.08           0.0001         155.14618     -2210.7703      10.247705      2311.4467      10246.592    
ec    20900  2.09           0.0001         162.75652     -2211.273       10.750383      2307.6282      10246.592    
ec    21000  2.1            0.0001         132.29101     -2209.2606      8.7380768      2447.918       10246.592    
ec    21100  2.11           0.0001         144.71448     -2210.0812      9.5586716      2484.3772      10246.592    
ec    21200  2.12           0.0001         169.4289      -2211.7137      11.191106      2448.3979      10246.592    
ec    21300  2.13           0.0001         154.80495     -2210.7477      10.225166      2473.2266      10246.592    
ec    21400  2.14           0.0001         144.63035     -2210.0757      9.5531145      2450.0943      10246.592    
ec    21500  2.15           0.0001         152.12839     -2210.571       10.048374      2353.337       10246.592    
ec    21600  2.16           0.0001         149.28596     -2210.3832      9.8606266      2323.5879      10246.592    
ec    21700  2.17           0.0001         141.06809     -2209.8404      9.31782        2366.9326      10246.592    
ec    21800  2.18           0.0001         144.79568     -2210.0866      9.5640345      2380.6972      10246.592    
ec    21900  2.19           0.0001         155.92402     -2210.8217      10.299083      2358.9167      10246.592    
ec    22000  2.2            0.0001         153.19577     -2210.6415      10.118877      2383.0086      10246.592    
ec    22100  2.21           0.0001         136.73794     -2209.5544      9.0318057      2439.0795      10246.592    
ec    22200  2.22           0.0001         142.50138     -2209.9351      9.4124915      2421.5168      10246.592    
ec    22300  2.23           0.0001         162.45164     -2211.2528      10.730245      2397.9591      10246.592    
ec    22400  2.24           0.0001         160.17464     -2211.1024      10.579844      2473.466       10246.592    
ec    22500  2.25           0.0001         153.57906     -2210.6668      10.144194      2550.3164      10246.592    
ec    22600  2.26           0.0001         159.03495     -2211.0271      10.504566      2538.6998      10246.592    
ec    22700  2.27           0.0001         156.92686     -2210.8879      10.365323      2459.2206      10246.592    
ec    22800  2.28           0.0001         145.45562     -2210.1302      9.6076248      2355.5267      10246.592    
ec    22900  2.29           0.0001         137.06083     -2209.5757      9.0531329      2273.7244      10246.592    
ec    23000  2.3            0.0001         131.07333     -2209.1802      8.6576468      2243.641       10246.592    
ec    23100  2.31           0.0001         139.88942     -2209.7625      9.2399665      2234.1017      10246.592    
ec    23200  2.32           0.0001         152.69712     -2210.6085      10.08594       2315.3453      10246.592    
ec    23300  2.33           0.0001         149.82872     -2210.419       9.896477       2493.3267      10246.592    
ec    23400  2.34           0.0001         154.01103     -2210.6953      10.172727      2599.7499      10246.592    
ec    23500  2.35           0.0001         172.45274     -2211.9134      11.390837      2598.5754      10246.592    
ec    23600  2.36           0.0001         166.37383     -2211.5119      10.989314      2595.1847      10246.592    
ec    23700  2.37           0.0001         151.62297     -2210.5376      10.014991      2481.6249      10246.592    
ec    23800  2.38           0.0001         147.16882     -2210.2434      9.720785       2287.4402      10246.592    
ec    23900  2.39           0.0001         129.82172     -2209.0975      8.5749758      2213.3403      10246.592    
ec    24000  2.4            0.0001         117.72306     -2208.2984      7.7758355      2225.5541      10246.592    
ec    24100  2.41           0.0001         140.22077     -2209.7844      9.261853       2249.1871      10246.592    
ec    24200  2.42           0.0001         159.27628     -2211.0431      10.520506      2398.4526      10246.592    
ec    24300  2.43           0.0001         168.93336     -2211.6809      11.158375      2541.9271      10246.592    
ec    24400  2.44           0.0001         171.7202      -2211.865       11.342451      2592.0571      10246.592    
ec    24500  2.45           0.0001         149.7493      -2210.4138      9.891231       2621.6788      10246.592    
ec    24600  2.46           0.0001         146.21418     -2210.1803      9.6577294      2491.2471      10246.592    
ec    24700  2.47           0.0001         166.93842     -2211.5492      11.026605      2266.0378      10246.592    
ec    24800  2.48           0.0001         140.67549     -2209.8145      9.2918883      2272.7158      10246.592    
ec    24900  2.49           0.0001         113.76409     -2208.0369      7.5143379      2346.9185      10246.592    
ec    25000  2.5            0.0001         148.07389     -2210.3032      9.7805671      2302.5002      10246.592    
ec    25100  2.51           0.0001         161.83054     -2211.2118      10.68922       2407.5473      10246.592    
ec    25200  2.52           0.0001         148.85391     -2210.3546      9.8320885      2522.5367      10246.592    
ec    25300  2.53           0.0001         162.4733      -2211.2543      10.731676      2417.0485      10246.592    
ec    25400  2.54           0.0001         152.12389     -2210.5707      10.048077      2395.1637      10246.592    
ec    25500  2.55           0.0001         137.70277     -2209.6181      9.0955342      2431.5642      10246.592    
ec    25600  2.56           0.0001         161.93173     -2211.2185      10.695904      2373.1637      10246.592    
ec    25700  2.57           0.0001         152.59727     -2210.6019      10.079345      2456.7609      10246.592    
ec    25800  2.58           0.0001         136.05654     -2209.5093      8.9867973      2519.2126      10246.592    
ec    25900  2.59           0.0001         165.24865     -2211.4376      10.914993      2369.706       10246.592    
ec    26000  2.6            0.0001         153.78885     -2210.6806      10.158051      2364.4238      10246.592    
ec    26100  2.61           0.0001         125.23094     -2208.7943      8.2717457      2395.8708      10246.592    
ec    26200  2.62           0.0001         149.44708     -2210.3939      9.871269       2253.3391      10246.592    
ec    26300  2.63           0.0001         149.6838      -2210.4095      9.8869043      2321.2536      10246.592    
ec    26400  2.64           0.0001         138.92814     -2209.699       9.1764724      2495.0524      10246.592    
ec    26500  2.65           0.0001         171.272       -2211.8354      11.312847      2426.5762      10246.592    
ec    26600  2.66           0.0001         156.55688     -2210.8635      10.340885      2451.8849      10246.592    
ec    26700  2.67           0.0001         130.8058      -2209.1625      8.6399764      2508.9755      10246.592    
ec    26800  2.68           0.0001         159.84457     -2211.0806      10.558043      2369.6344      10246.592    
ec    26900  2.69           0.0001         149.74048     -2210.4132      9.8906484      2407.6952      10246.592    
ec    27000  2.7            0.0001         136.79685     -2209.5582      9.0356963      2501.3062      10246.592    
ec    27100  2.71           0.0001         179.14804     -2212.3557      11.833075      2362.6997      10246.592    
ec    27200  2.72           0.0001         156.86598     -2210.8839      10.361302      2400.9459      10246.592    
ec    27300  2.73           0.0001         119.45797     -2208.413       7.8904299      2479.064       10246.592    
ec    27400  2.74           0.0001         162.19816     -2211.2361      10.713502      2271.3166      10246.592    
ec    27500  2.75           0.0001         158.14757     -2210.9685      10.445953      2258.4088      10246.592    
ec    27600  2.76           0.0001         124.61178     -2208.7534      8.2308489      2424.8615      10246.592    
ec    27700  2.77           0.0001         157.42521     -2210.9208      10.39824       2388.0985      10246.592    
ec    27800  2.78           0.0001         156.09059     -2210.8327      10.310085      2450.1864      10246.592    
ec    27900  2.79           0.0001         135.08525     -2209.4452      8.9226423      2559.3287      10246.592    
ec    28000  2.8            0.0001         168.77997     -2211.6708      11.148244      2431.0386      10246.592    
ec    28100  2.81           0.0001         163.12322     -2211.2972      10.774604      2369.7121      10246.592    
ec    28200  2.82           0.0001         129.89791     -2209.1025      8.5800082      2387.3255      10246.592    
ec    28300  2.83           0.0001         146.81188     -2210.2198      9.6972086      2270.0634      10246.592    
ec    28400  2.84           0.0001         139.14668     -2209.7135      9.1909071      2318.0095      10246.592    
ec    28500  2.85           0.0001         136.25124     -2209.5222      8.9996578      2420.7399      10246.592    
ec    28600  2.86           0.0001         174.85848     -2212.0723      11.549741      2374.6321      10246.592    
ec    28700  2.87           0.0001         159.24671     -2211.0411      10.518553      2460.7124      10246.592    
ec    28800  2.88           0.0001         135.56096     -2209.4766      8.9540634      2543.5878      10246.592    
ec    28900  2.89           0.0001         164.9468      -2211.4177      10.895055      2410.6921      10246.592    
ec    29000  2.9            0.0001         152.46126     -2210.5929      10.070361      2413.9405      10246.592    
ec    29100  2.91           0.0001         130.5502      -2209.1456      8.623093       2472.2657      10246.592    
ec    29200  2.92           0.0001         162.92608     -2211.2842      10.761583      2337.0233      10246.592    
ec    29300  2.93           0.0001         158.51918     -2210.9931      10.470499      2328.6665      10246.592    
ec    29400  2.94           0.0001         129.943       -2209.1055      8.5829867      2439.29        10246.592    
ec    29500  2.95           0.0001         150.26354     -2210.4478      9.9251972      2357.4092      10246.592    
ec    29600  2.96           0.0001         151.63861     -2210.5386      10.016024      2322.9409      10246.592    
ec    29700  2.97           0.0001         135.20633     -2209.4532      8.9306399      2398.4219      10246.592    
ec    29800  2.98           0.0001         152.74765     -2210.6119      10.089278      2397.07        10246.592    
ec    29900  2.99           0.0001         165.29556     -2211.4407      10.918091      2427.5803      10246.592    
ec    30000  3              0.0001         155.98049     -2210.8254      10.302813      2537.0882      10246.592    
ec    30100  3.01           0.0001         156.77704     -2210.878       10.355427      2542.2196      10246.592    
ec    30200  3.02           0.0001         153.62252     -2210.6696      10.147065      2481.3131      10246.592    
ec    30300  3.03           0.0001         149.74867     -2210.4138      9.8911892      2398.1765      10246.592    
ec    30400  3.04           0.0001         149.55238     -2210.4008      9.8782241      2279.6659      10246.592    
ec    30500  3.05           0.0001         136.24016     -2209.5215      8.9989258      2212.2031      10246.592    
ec    30600  3.06           0.0001         127.9745      -2208.9755      8.4529633      2212.6266      10246.592    
ec    30700  3.07           0.0001         142.00174     -2209.9021      9.3794896      2248.8076      10246.592    
ec    30800  3.08           0.0001         152.81333     -2210.6162      10.093616      2396.7346      10246.592    
ec    30900  3.09           0.0001         153.71877     -2210.676       10.153422      2574.5776      10246.592    
ec    31000  3.1            0.0001         161.40618     -2211.1838      10.66119       2582.7968      10246.592    
ec    31100  3.11           0.0001         165.56039     -2211.4582      10.935584      2495.6434      10246.592    
ec    31200  3.12           0.0001         148.23949     -2210.3141      9.7915051      2486.5106      10246.592    
ec    31300  3.13           0.0001         141.13974     -2209.8451      9.3225528      2433.6511      10246.592    
ec    31400  3.14           0.0001         156.0065      -2210.8271      10.304531      2298.3406      10246.592    
ec    31500  3.15           0.0001         151.65489     -2210.5397      10.017099      2282.409       10246.592    
ec    31600  3.16           0.0001         134.48099     -2209.4053      8.8827295      2384.2991      10246.592    
ec    31700  3.17           0.0001         146.04475     -2210.1691      9.646538       2435.3704      10246.592    
ec    31800  3.18           0.0001         157.5386      -2210.9283      10.405729      2473.7936      10246.592    
ec    31900  3.19           0.0001         158.02298     -2210.9603      10.437724      2475.608       10246.592    
ec    32000  3.2            0.0001         164.20125     -2211.3684      10.84581       2428.6353      10246.592    
ec    32100  3.21           0.0001         151.18887     -2210.5089      9.986317       2460.039       10246.592    
ec    32200  3.22           0.0001         137.63992     -2209.6139      9.0913827      2444.3899      10246.592    
ec    32300  3.23           0.0001         149.66982     -2210.4086      9.8859813      2311.6594      10246.592    
ec    32400  3.24           0.0001         144.38404     -2210.0594      9.536845       2298.0224      10246.592    
ec    32500  3.25           0.0001         129.92919     -2209.1046      8.5820741      2366.1255      10246.592    
ec    32600  3.26           0.0001         153.91027     -2210.6887      10.166071      2315.4473      10246.592    
ec    32700  3.27           0.0001         161.04752     -2211.1601      10.6375        2350.0045      10246.592    
ec    32800  3.28           0.0001         141.18415     -2209.848       9.3254863      2445.7449      10246.592    
ec    32900  3.29           0.0001         148.63387     -2210.3401      9.8175549      2386.5122      10246.592    
ec    33000  3.3            0.0001         151.84014     -2210.5519      10.029335      2375.0193      10246.592    
ec    33100  3.31           0.0001         146.23672     -2210.1818      9.659218       2440.5812      10246.592    
ec    33200  3.32           0.0001         159.57944     -2211.0631      10.540531      2431.9419      10246.592    
ec    33300  3.33           0.0001         155.77062     -2210.8115      10.288951      2490.7565      10246.592    
ec    33400  3.34           0.0001         143.43039     -2209.9964      9.4738545      2575.518       10246.592    
ec    33500  3.35           0.0001         165.2948      -2211.4406      10.918041      2474.6791      10246.592    
ec    33600  3.36           0.0001         164.18433     -2211.3673      10.844693      2398.5451      10246.592    
ec    33700  3.37           0.0001         129.79701     -2209.0959      8.5733433      2414.2007      10246.592    
ec    33800  3.38           0.0001         142.27517     -2209.9201      9.3975504      2253.0099      10246.592    
ec    33900  3.39           0.0001         156.46088     -2210.8571      10.334544      2166.0837      10246.592    
ec    34000  3.4            0.0001         128.47223     -2209.0084      8.4858393      2336.4723      10246.592    
ec    34100  3.41           0.0001         134.3941      -2209.3995      8.8769902      2419.6261      10246.592    
ec    34200  3.42           0.0001         170.21731     -2211.7658      11.243182      2424.0886      10246.592    
ec    34300  3.43           0.0001         165.63275     -2211.4629      10.940363      2562.9806      10246.592    
ec    34400  3.44           0.0001         156.25511     -2210.8435      10.320952      2593.9723      10246.592    
ec    34500  3.45           0.0001         159.18141     -2211.0368      10.51424       2483.1427      10246.592    
ec    34600  3.46           0.0001         140.36286     -2209.7938      9.2712383      2439.2464      10246.592    
ec    34700  3.47           0.0001         135.52513     -2209.4743      8.9516969      2342.0884      10246.592    
ec    34800  3.48           0.0001         149.44912     -2210.394       9.8714034      2224.8369      10246.592    
ec    34900  3.49           0.0001         140.72191     -2209.8175      9.2949545      2285.3887      10246.592    
ec    35000  3.5            0.0001         147.70789     -2210.279       9.756392       2324.8264      10246.592    
ec    35100  3.51           0.0001         164.59601     -2211.3945      10.871885      2341.0521      10246.592    
ec    35200  3.52           0.0001         143.45775     -2209.9982      9.4756617      2504.8502      10246.592    
ec    35300  3.53           0.0001         142.49297     -2209.9345      9.411936       2540.7372      10246.592    
ec    35400  3.54           0.0001         171.65838     -2211.861       11.338368      2394.6373      10246.592    
ec    35500  3.55           0.0001         146.87367     -2210.2239      9.7012902      2420.1997      10246.592    
ec    35600  3.56           0.0001         125.61918     -2208.8199      8.2973896      2420.0593      10246.592    
ec    35700  3.57           0.0001         158.51015     -2210.9925      10.469902      2275.1503      10246.592    
ec    35800  3.58           0.0001         158.4092      -2210.9858      10.463234      2344.1389      10246.592    
ec    35900  3.59           0.0001         136.27669     -2209.5239      9.001339       2483.5528      10246.592    
ec    36000  3.6            0.0001         159.21345     -2211.0389      10.516356      2423.5374      10246.592    
ec    36100  3.61           0.0001         166.63424     -2211.5291      11.006514      2454.2825      10246.592    
ec    36200  3.62           0.0001         145.38508     -2210.1255      9.602966       2523.1075      10246.592    
ec    36300  3.63           0.0001         148.43293     -2210.3269      9.8042823      2395.2431      10246.592    
ec    36400  3.64           0.0001         149.73001     -2210.4125      9.8899566      2345.6326      10246.592    
ec    36500  3.65           0.0001         145.6578      -2210.1435      9.6209795      2411.4714      10246.592    
ec    36600  3.66           0.0001         153.51453     -2210.6625      10.139931      2382.8607      10246.592    
ec    36700  3.67           0.0001         145.52122     -2210.1345      9.6119581      2373.8299      10246.592    
ec    36800  3.68           0.0001         141.03603     -2209.8383      9.3157024      2385.2501      10246.592    
ec    36900  3.69           0.0001         155.20729     -2210.7743      10.251742      2339.9778      10246.592    
ec    37000  3.7            0.0001         149.76853     -2210.4151      9.8925013      2379.7605      10246.592    
ec    37100  3.71           0.0001         143.56535     -2210.0053      9.4827689      2429.9964      10246.592    
ec    37200  3.72           0.0001         162.43683     -2211.2519      10.729267      2348.236       10246.592    
ec    37300  3.73           0.0001         147.3869      -2210.2578      9.7351895      2381.5936      10246.592    
ec    37400  3.74           0.0001         125.25626     -2208.796       8.2734183      2444.3046      10246.592    
ec    37500  3.75           0.0001         150.80919     -2210.4838      9.9612386      2307.0089      10246.592    
ec    37600  3.76           0.0001         155.63992     -2210.8029      10.280318      2296.1669      10246.592    
ec    37700  3.77           0.0001         136.99312     -2209.5712      9.0486604      2482.3314      10246.592    
ec    37800  3.78           0.0001         166.23972     -2211.503       10.980455      2514.9723      10246.592    
ec    37900  3.79           0.0001         181.13253     -2212.4868      11.964154      2525.6639      10246.592    
ec    38000  3.8            0.0001         146.43362     -2210.1948      9.6722238      2621.997       10246.592    
ec    38100  3.81           0.0001         150.77356     -2210.4814      9.9588856      2485.1144      10246.592    
ec    38200  3.82           0.0001         165.65707     -2211.4646      10.94197       2262.3189      10246.592    
ec    38300  3.83           0.0001         133.11065     -2209.3148      8.7922161      2224.9612      10246.592    
ec    38400  3.84           0.0001         124.00967     -2208.7136      8.1910783      2175.8629      10246.592    
ec    38500  3.85           0.0001         139.46198     -2209.7343      9.2117332      2204.2272      10246.592    
ec    38600  3.86           0.0001         136.10905     -2209.5128      8.990266       2436.8651      10246.592    
ec    38700  3.87           0.0001         157.67766     -2210.9375      10.414914      2537.5735      10246.592    
ec    38800  3.88           0.0001         184.29061     -2212.6954      12.172751      2473.3924      10246.592    
ec    38900  3.89           0.0001         155.29392     -2210.78        10.257464      2490.033       10246.592    
ec    39000  3.9            0.0001         134.62637     -2209.4149      8.8923324      2418.8278      10246.592    
ec    39100  3.91           0.0001         147.04272     -2210.235       9.712456       2272.8439      10246.592    
ec    39200  3.92           0.0001         139.76094     -2209.754       9.2314803      2323.7932      10246.592    
ec    39300  3.93           0.0001         146.85076     -2210.2223      9.699777       2406.7923      10246.592    
ec    39400  3.94           0.0001         167.85202     -2211.6095      11.08695       2428.731       10246.592    
ec    39500  3.95           0.0001         155.1566      -2210.771       10.248394      2501.789       10246.592    
ec    39600  3.96           0.0001         147.16212     -2210.2429      9.7203429      2458.4821      10246.592    
ec    39700  3.97           0.0001         153.93667     -2210.6904      10.167815      2314.6161      10246.592    
ec    39800  3.98           0.0001         136.0498      -2209.5089      8.9863525      2319.0945      10246.592    
ec    39900  3.99           0.0001         135.16713     -2209.4506      8.9280504      2356.6398      10246.592    
ec    40000  4              0.0001         163.12928     -2211.2976      10.775004      2352.2727      10246.592    
ec    40100  4.01           0.0001         152.70265     -2210.6089      10.086305      2489.011       10246.592    
ec    40200  4.02           0.0001         144.56051     -2210.0711      9.548501       2544.0103      10246.592    
ec    40300  4.03           0.0001         165.52111     -2211.4556      10.932989      2390.7927      10246.592    
ec    40400  4.04           0.0001         147.12511     -2210.2405      9.7178981      2336.4794      10246.592    
ec    40500  4.05           0.0001         123.71147     -2208.6939      8.1713821      2357.422       10246.592    
ec    40600  4.06           0.0001         154.40408     -2210.7213      10.198688      2279.205       10246.592    
ec    40700  4.07           0.0001         164.4229      -2211.383       10.860451      2330.7024      10246.592    
ec    40800  4.08           0.0001         142.58445     -2209.9405      9.4179786      2503.0276      10246.592    
ec    40900  4.09           0.0001         157.54321     -2210.9286      10.406034      2528.3602      10246.592    
ec    41000  4.1            0.0001         171.58988     -2211.8564      11.333843      2476.9665      10246.592    
ec    41100  4.11           0.0001         150.45016     -2210.4601      9.9375242      2424.2632      10246.592    
ec    41200  4.12           0.0001         138.38184     -2209.663       9.1403882      2303.6357      10246.592    
ec    41300  4.13           0.0001         134.32179     -2209.3948      8.8722141      2243.3858      10246.592    
ec    41400  4.14           0.0001         132.68069     -2209.2864      8.7638161      2301.7684      10246.592    
ec    41500  4.15           0.0001         155.51269     -2210.7945      10.271914      2354.6878      10246.592    
ec    41600  4.16           0.0001         163.89937     -2211.3484      10.825871      2438.9635      10246.592    
ec    41700  4.17           0.0001         154.01602     -2210.6956      10.173056      2494.9019      10246.592    
ec    41800  4.18           0.0001         155.12507     -2210.7689      10.246311      2435.7796      10246.592    
ec    41900  4.19           0.0001         140.00315     -2209.77        9.2474791      2394.828       10246.592    
ec    42000  4.2            0.0001         131.31959     -2209.1965      8.6739132      2331.2509      10246.592    
ec    42100  4.21           0.0001         156.10192     -2210.8334      10.310834      2220.9532      10246.592    
ec    42200  4.22           0.0001         154.52956     -2210.7296      10.206977      2296.0922      10246.592    
ec    42300  4.23           0.0001         137.3276      -2209.5933      9.0707537      2472.2457      10246.592    
ec    42400  4.24           0.0001         159.29545     -2211.0443      10.521773      2514.0014      10246.592    
ec    42500  4.25           0.0001         170.00585     -2211.7518      11.229215      2540.6796      10246.592    
ec    42600  4.26           0.0001         157.45875     -2210.923       10.400455      2553.2214      10246.592    
ec    42700  4.27           0.0001         159.32863     -2211.0465      10.523964      2443.7221      10246.592    
ec    42800  4.28           0.0001         145.55603     -2210.1368      9.6142572      2349.077       10246.592    
ec    42900  4.29           0.0001         126.17588     -2208.8567      8.3341607      2303.6972      10246.592    
ec    43000  4.3            0.0001         144.08861     -2210.0399      9.5173312      2238.0612      10246.592    
ec    43100  4.31           0.0001         147.20993     -2210.2461      9.7235003      2296.2743      10246.592    
ec    43200  4.32           0.0001         138.31742     -2209.6587      9.1361331      2397.7896      10246.592    
ec    43300  4.33           0.0001         160.84343     -2211.1466      10.62402       2379.5818      10246.592    
ec    43400  4.34           0.0001         162.68016     -2211.2679      10.745339      2406.7506      10246.592    
ec    43500  4.35           0.0001         142.36616     -2209.9261      9.4035602      2468.9851      10246.592    
ec    43600  4.36           0.0001         146.84928     -2210.2222      9.6996789      2437.0033      10246.592    
ec    43700  4.37           0.0001         153.23477     -2210.644       10.121453      2416.5648      10246.592    
ec    43800  4.38           0.0001         152.23644     -2210.5781      10.055512      2425.72        10246.592    
ec    43900  4.39           0.0001         160.25535     -2211.1078      10.585176      2383.4908      10246.592    
ec    44000  4.4            0.0001         152.97123     -2210.6266      10.104045      2363.6064      10246.592    
ec    44100  4.41           0.0001         144.19058     -2210.0466      9.524067       2334.5156      10246.592    
ec    44200  4.42           0.0001         141.06681     -2209.8403      9.3177356      2336.2162      10246.592    
ec    44300  4.43           0.0001         135.24076     -2209.4555      8.9329135      2409.8077      10246.592    
ec    44400  4.44           0.0001         153.71532     -2210.6758      10.153194      2393.7319      10246.592    
ec    44500  4.45           0.0001         167.07169     -2211.558       11.035408      2369.3641      10246.592    
ec    44600  4.46           0.0001         146.50967     -2210.1998      9.6772468      2444.2753      10246.592    
ec    44700  4.47           0.0001         144.51509     -2210.0681      9.545501       2410.4074      10246.592    
ec    44800  4.48           0.0001         157.61296     -2210.9332      10.410641      2293.6199      10246.592    
ec    44900  4.49           0.0001         138.51894     -2209.672       9.1494437      2333.9946      10246.592    
ec    45000  4.5            0.0001         136.21906     -2209.5201      8.997532       2382.1689      10246.592    
ec    45100  4.51           0.0001         158.32974     -2210.9806      10.457986      2376.2052      10246.592    
ec    45200  4.52           0.0001         154.90612     -2210.7544      10.231849      2463.5511      10246.592    
ec    45300  4.53           0.0001         152.16834     -2210.5736      10.051013      2526.8248      10246.592    
ec    45400  4.54           0.0001         164.70591     -2211.4017      10.879144      2473.0833      10246.592    
ec    45500  4.55           0.0001         158.78315     -2211.0105      10.487934      2409.1321      10246.592    
ec    45600  4.56           0.0001         146.82067     -2210.2204      9.6977893      2337.9186      10246.592    
ec    45700  4.57           0.0001         134.232       -2209.3888      8.8662835      2323.6612      10246.592    
ec    45800  4.58           0.0001         132.51728     -2209.2756      8.7530228      2368.9817      10246.592    
ec    45900  4.59           0.0001         162.43492     -2211.2517      10.729141      2344.5111      10246.592    
ec    46000  4.6            0.0001         164.70628     -2211.4018      10.879168      2374.227       10246.592    
ec    46100  4.61           0.0001         133.42685     -2209.3356      8.8131012      2483.5775      10246.592    
ec    46200  4.62           0.0001         151.53373     -2210.5317      10.009096      2405.1596      10246.592    
ec    46300  4.63           0.0001         167.38682     -2211.5788      11.056223      2290.7096      10246.592    
ec    46400  4.64           0.0001         128.51929     -2209.0115      8.4889477      2331.0594      10246.592    
ec    46500  4.65           0.0001         125.98752     -2208.8443      8.3217197      2293.9046      10246.592    
ec    46600  4.66           0.0001         158.50343     -2210.992       10.469458      2253.8146      10246.592    
ec    46700  4.67           0.0001         155.00731     -2210.7611      10.238533      2406.7361      10246.592    
ec    46800  4.68           0.0001         153.09892     -2210.635       10.11248       2521.4696      10246.592    
ec    46900  4.69           0.0001         162.29462     -2211.2425      10.719873      2530.3502      10246.592    
ec    47000  4.7            0.0001         152.34244     -2210.5851      10.062513      2557.788       10246.592    
ec    47100  4.71           0.0001         158.60093     -2210.9985      10.475898      2482.9304      10246.592    
ec    47200  4.72           0.0001         159.86989     -2211.0823      10.559715      2367.0174      10246.592    
ec    47300  4.73           0.0001         135.5429      -2209.4754      8.9528707      2322.4321      10246.592    
ec    47400  4.74           0.0001         136.92024     -2209.5664      9.0438469      2261.7527      10246.592    
ec    47500  4.75           0.0001         151.74162     -2210.5454      10.022827      2274.4708      10246.592    
ec    47600  4.76           0.0001         145.26068     -2210.1173      9.5947489      2413.5618      10246.592    
ec    47700  4.77           0.0001         152.5834      -2210.601       10.078429      2448.2577      10246.592    
ec    47800  4.78           0.0001         165.24852     -2211.4376      10.914984      2388.921       10246.592    
ec    47900  4.79           0.0001         147.98315     -2210.2971      9.774573       2420.1315      10246.592    
ec    48000  4.8            0.0001         143.34718     -2209.9909      9.4683587      2394.9807      10246.592    
ec    48100  4.81           0.0001         146.18538     -2210.1784      9.6558271      2336.581       10246.592    
ec    48200  4.82           0.0001         139.35593     -2209.7273      9.204729       2366.5685      10246.592    
ec    48300  4.83           0.0001         147.99087     -2210.2977      9.7750835      2384.0922      10246.592    
ec    48400  4.84           0.0001         159.00157     -2211.0249      10.502361      2360.9585      10246.592    
ec    48500  4.85           0.0001         147.0017      -2210.2323      9.7097469      2401.4996      10246.592    
ec    48600  4.86           0.0001         147.52844     -2210.2671      9.7445391      2411.1773      10246.592    
ec    48700  4.87           0.0001         154.85312     -2210.7509      10.228348      2402.3974      10246.592    
ec    48800  4.88           0.0001         144.5334      -2210.0693      9.5467109      2475.5026      10246.592    
ec    48900  4.89           0.0001         151.86059     -2210.5532      10.030686      2485.7687      10246.592    
ec    49000  4.9            0.0001         173.17088     -2211.9609      11.438271      2400.8984      10246.592    
ec    49100  4.91           0.0001         159.22927     -2211.04        10.517401      2387.2275      10246.592    
ec    49200  4.92           0.0001         126.12672     -2208.8535      8.330914       2398.8826      10246.592    
ec    49300  4.93           0.0001         131.79988     -2209.2282      8.7056372      2291.6199      10246.592    
ec    49400  4.94           0.0001         152.18743     -2210.5749      10.052274      2234.6114      10246.592    
ec    49500  4.95           0.0001         149.64802     -2210.4071      9.8845414      2344.4639      10246.592    
ec    49600  4.96           0.0001         147.33406     -2210.2543      9.7316998      2460.3943      10246.592    
ec    49700  4.97           0.0001         161.18433     -2211.1691      10.646537      2484.0564      10246.592    
ec    49800  4.98           0.0001         166.14386     -2211.4967      10.974123      2470.8316      10246.592    
ec    49900  4.99           0.0001         149.80349     -2210.4174      9.8948103      2457.5037      10246.592    
ec    50000  5              0.0001         142.13967     -2209.9112      9.3886003      2411.2951      10246.592    
ec    50100  5.01           0.0001         148.45453     -2210.3283      9.8057088      2357.2798      10246.592    
ec    50200  5.02           0.0001         150.45688     -2210.4605      9.9379679      2336.0761      10246.592    
ec    50300  5.03           0.0001         144.09025     -2210.04        9.5174395      2367.8612      10246.592    
ec    50400  5.04           0.0001         150.3218      -2210.4516      9.9290455      2380.0737      10246.592    
ec    50500  5.05           0.0001         159.01614     -2211.0259      10.503324      2360.1848      10246.592    
ec    50600  5.06           0.0001         148.79482     -2210.3508      9.8281855      2361.6831      10246.592    
ec    50700  5.07           0.0001         134.47876     -2209.4051      8.882582       2382.8133      10246.592    
ec    50800  5.08           0.0001         145.17178     -2210.1114      9.5888769      2344.5017      10246.592    
ec    50900  5.09           0.0001         154.40843     -2210.7216      10.198975      2335.4624      10246.592    
ec    51000  5.1            0.0001         146.10422     -2210.173       9.6504664      2395.9108      10246.592    
ec    51100  5.11           0.0001         143.268       -2209.9857      9.4631284      2407.7617      10246.592    
ec    51200  5.12           0.0001         153.78481     -2210.6804      10.157784      2355.7273      10246.592    
ec    51300  5.13           0.0001         159.61141     -2211.0652      10.542643      2392.2978      10246.592    
ec    51400  5.14           0.0001         148.45745     -2210.3285      9.8059015      2531.9213      10246.592    
ec    51500  5.15           0.0001         148.05351     -2210.3018      9.7792207      2564.104       10246.592    
ec    51600  5.16           0.0001         164.97549     -2211.4195      10.89695       2466.5815      10246.592    
ec    51700  5.17           0.0001         158.6983      -2211.0049      10.48233       2428.5445      10246.592    
ec    51800  5.18           0.0001         148.45339     -2210.3282      9.8056336      2364.8332      10246.592    
ec    51900  5.19           0.0001         151.57125     -2210.5342      10.011574      2253.2632      10246.592    
ec    52000  5.2            0.0001         135.09513     -2209.4459      8.9232948      2271.0621      10246.592    
ec    52100  5.21           0.0001         124.17347     -2208.7244      8.2018981      2354.3013      10246.592    
ec    52200  5.22           0.0001         156.47046     -2210.8578      10.335177      2384.5325      10246.592    
ec    52300  5.23           0.0001         172.78668     -2211.9355      11.412895      2490.3026      10246.592    
ec    52400  5.24           0.0001         157.89776     -2210.952       10.429452      2551.2889      10246.592    
ec    52500  5.25           0.0001         148.02145     -2210.2997      9.7771033      2434.43        10246.592    
ec    52600  5.26           0.0001         132.87421     -2209.2992      8.7765985      2327.2379      10246.592    
ec    52700  5.27           0.0001         137.4816      -2209.6035      9.0809258      2241.6007      10246.592    
ec    52800  5.28           0.0001         162.08109     -2211.2284      10.705769      2171.567       10246.592    
ec    52900  5.29           0.0001         144.13225     -2210.0428      9.5202141      2289.1096      10246.592    
ec    53000  5.3            0.0001         129.80849     -2209.0966      8.574102       2402.3889      10246.592    
ec    53100  5.31           0.0001         164.42596     -2211.3832      10.860653      2369.3593      10246.592    
ec    53200  5.32           0.0001         160.3865      -2211.1164      10.593838      2482.4094      10246.592    
ec    53300  5.33           0.0001         140.64852     -2209.8126      9.2901069      2591.8585      10246.592    
ec    53400  5.34           0.0001         167.888       -2211.6119      11.089327      2459.6897      10246.592    
ec    53500  5.35           0.0001         163.93558     -2211.3508      10.828262      2418.0139      10246.592    
ec    53600  5.36           0.0001         139.4384      -2209.7327      9.2101763      2465.9124      10246.592    
ec    53700  5.37           0.0001         152.28105     -2210.581       10.058458      2384.5912      10246.592    
ec    53800  5.38           0.0001         149.08794     -2210.3701      9.8475469      2346.2103      10246.592    
ec    53900  5.39           0.0001         130.84253     -2209.165       8.642402       2358.198       10246.592    
ec    54000  5.4            0.0001         146.38306     -2210.1915      9.6688841      2278.691       10246.592    
ec    54100  5.41           0.0001         151.10977     -2210.5037      9.9810928      2303.2767      10246.592    
ec    54200  5.42           0.0001         147.33392     -2210.2542      9.7316905      2380.9652      10246.592    
ec    54300  5.43           0.0001         158.11289     -2210.9662      10.443662      2374.0828      10246.592    
ec    54400  5.44           0.0001         146.90305     -2210.2258      9.7032306      2446.2096      10246.592    
ec    54500  5.45           0.0001         143.64465     -2210.0106      9.4880069      2512.2138      10246.592    
ec    54600  5.46           0.0001         170.2044      -2211.7649      11.24233       2436.808       10246.592    
ec    54700  5.47           0.0001         164.98432     -2211.4201      10.897533      2419.0322      10246.592    
ec    54800  5.48           0.0001         137.63724     -2209.6138      9.0912059      2439.8798      10246.592    
ec    54900  5.49           0.0001         140.9904      -2209.8353      9.3126886      2331.7463      10246.592    
ec    55000  5.5            0.0001         149.74571     -2210.4136      9.8909938      2242.4114      10246.592    
ec    55100  5.51           0.0001         146.85186     -2210.2224      9.6998494      2253.9104      10246.592    
ec    55200  5.52           0.0001         143.17365     -2209.9795      9.4568968      2291.6022      10246.592    
ec    55300  5.53           0.0001         135.66875     -2209.4837      8.9611834      2367.3542      10246.592    
ec    55400  5.54           0.0001         142.93513     -2209.9637      9.4411417      2426.5318      10246.592    
ec    55500  5.55           0.0001         162.86929     -2211.2804      10.757832      2433.657       10246.592    
ec    55600  5.56           0.0001         164.25845     -2211.3722      10.849589      2468.2613      10246.592    
ec    55700  5.57           0.0001         155.50218     -2210.7938      10.27122       2479.6197      10246.592    
ec    55800  5.58           0.0001         154.34969     -2210.7177      10.195096      2398.3981      10246.592    
ec    55900  5.59           0.0001         144.268       -2210.0517      9.5291802      2379.2374      10246.592    
ec    56000  5.6            0.0001         141.87135     -2209.8934      9.370877       2411.4696      10246.592    
ec    56100  5.61           0.0001         156.45667     -2210.8568      10.334266      2372.2708      10246.592    
ec    56200  5.62           0.0001         155.71362     -2210.8078      10.285186      2332.0078      10246.592    
ec    56300  5.63           0.0001         143.02594     -2209.9697      9.4471402      2348.8215      10246.592    
ec    56400  5.64           0.0001         139.56937     -2209.7414      9.2188265      2378.757       10246.592    
ec    56500  5.65           0.0001         143.62896     -2210.0095      9.4869707      2399.9584      10246.592    
ec    56600  5.66           0.0001         158.35083     -2210.982       10.459379      2384.3241      10246.592    
ec    56700  5.67           0.0001         161.6835      -2211.2021      10.679508      2405.3843      10246.592    
ec    56800  5.68           0.0001         141.83046     -2209.8907      9.3681759      2494.2851      10246.592    
ec    56900  5.69           0.0001         148.59385     -2210.3375      9.8149111      2469.7118      10246.592    
ec    57000  5.7            0.0001         170.25752     -2211.7684      11.245838      2349.5505      10246.592    
ec    57100  5.71           0.0001         142.17655     -2209.9136      9.3910364      2364.3244      10246.592    
ec    57200  5.72           0.0001         121.26013     -2208.532       8.0094658      2374.8774      10246.592    
ec    57300  5.73           0.0001         156.10471     -2210.8336      10.311018      2250.8233      10246.592    
ec    57400  5.74           0.0001         163.45164     -2211.3189      10.796297      2245.9136      10246.592    
ec    57500  5.75           0.0001         135.10425     -2209.4464      8.9238969      2368.908       10246.592    
ec    57600  5.76           0.0001         141.00411     -2209.8362      9.3135941      2393.357       10246.592    
ec    57700  5.77           0.0001         156.09367     -2210.8329      10.310289      2418.1205      10246.592    
ec    57800  5.78           0.0001         154.44341     -2210.7238      10.201286      2510.741       10246.592    
ec    57900  5.79           0.0001         162.54719     -2211.2591      10.736556      2528.3434      10246.592    
ec    58000  5.8            0.0001         164.82901     -2211.4099      10.887275      2488.0416      10246.592    
ec    58100  5.81           0.0001         147.08671     -2210.2379      9.7153615      2452.7462      10246.592    
ec    58200  5.82           0.0001         140.15988     -2209.7804      9.2578313      2373.1962      10246.592    
ec    58300  5.83           0.0001         143.32985     -2209.9898      9.4672137      2301.2409      10246.592    
ec    58400  5.84           0.0001         146.28555     -2210.185       9.6624435      2262.2037      10246.592    
ec    58500  5.85           0.0001         151.72023     -2210.544       10.021414      2240.3443      10246.592    
ec    58600  5.86           0.0001         148.5465      -2210.3344      9.8117838      2293.5274      10246.592    
ec    58700  5.87           0.0001         143.9631      -2210.0316      9.509041       2380.7717      10246.592    
ec    58800  5.88           0.0001         152.99907     -2210.6285      10.105885      2406.5601      10246.592    
ec    58900  5.89           0.0001         151.12534     -2210.5047      9.982121       2458.8622      10246.592    
ec    59000  5.9            0.0001         143.96597     -2210.0318      9.5092306      2523.6882      10246.592    
ec    59100  5.91           0.0001         156.82387     -2210.8811      10.35852       2489.4914      10246.592    
ec    59200  5.92           0.0001         161.30096     -2211.1768      10.65424       2438.3043      10246.592    
ec    59300  5.93           0.0001         149.7101      -2210.4112      9.8886414      2399.9007      10246.592    
ec    59400  5.94           0.0001         150.96984     -2210.4944      9.9718498      2317.6983      10246.592    
ec    59500  5.95           0.0001         148.88296     -2210.3566      9.8340073      2290.9024      10246.592    
ec    59600  5.96           0.0001         136.38524     -2209.5311      9.0085089      2329.256       10246.592    
ec    59700  5.97           0.0001         141.59731     -2209.8753      9.3527762      2335.3397      10246.592    
ec    59800  5.98           0.0001         151.27287     -2210.5144      9.9918656      2367.9409      10246.592    
ec    59900  5.99           0.0001         146.8268      -2210.2208      9.6981939      2448.8839      10246.592    
ec    60000  6              0.0001         155.90605     -2210.8205      10.297896      2441.3516      10246.592    
ec    60100  6.01           0.0001         160.80566     -2211.1441      10.621525      2420.9963      10246.592    
ec    60200  6.02           0.0001         145.45855     -2210.1304      9.6078183      2433.4882      10246.592    
ec    60300  6.03           0.0001         148.08044     -2210.3036      9.7809995      2365.0969      10246.592    
ec    60400  6.04           0.0001         156.42605     -2210.8548      10.332243      2344.4205      10246.592    
ec    60500  6.05           0.0001         145.02099     -2210.1015      9.5789166      2446.1419      10246.592    
ec    60600  6.06           0.0001         149.54584     -2210.4004      9.8777916      2428.1647      10246.592    
ec    60700  6.07           0.0001         163.2406      -2211.3049      10.782358      2302.3194      10246.592    
ec    60800  6.08           0.0001         146.28842     -2210.1852      9.6626328      2295.1463      10246.592    
ec    60900  6.09           0.0001         131.69008     -2209.2209      8.6983842      2337.0731      10246.592    
ec    61000  6.1            0.0001         139.25438     -2209.7206      9.1980213      2359.4865      10246.592    
ec    61100  6.11           0.0001         148.19394     -2210.3111      9.7884963      2409.1116      10246.592    
ec    61200  6.12           0.0001         161.4961      -2211.1897      10.667129      2458.8978      10246.592    
ec    61300  6.13           0.0001         167.33791     -2211.5756      11.052992      2509.1316      10246.592    
ec    61400  6.14           0.0001         159.36874     -2211.0492      10.526614      2531.8316      10246.592    
ec    61500  6.15           0.0001         156.95702     -2210.8899      10.367315      2443.3275      10246.592    
ec    61600  6.16           0.0001         145.72857     -2210.1482      9.6256536      2324.3161      10246.592    
ec    61700  6.17           0.0001         130.25553     -2209.1262      8.6036298      2252.5674      10246.592    
ec    61800  6.18           0.0001         138.28912     -2209.6568      9.1342639      2196.2453      10246.592    
ec    61900  6.19           0.0001         143.89861     -2210.0274      9.5047812      2241.9938      10246.592    
ec    62000  6.2            0.0001         137.66802     -2209.6158      9.0932388      2390.5921      10246.592    
ec    62100  6.21           0.0001         153.48623     -2210.6606      10.138063      2463.6937      10246.592    
ec    62200  6.22           0.0001         166.88289     -2211.5455      11.022938      2485.8206      10246.592    
ec    62300  6.23           0.0001         156.24259     -2210.8427      10.320125      2539.3908      10246.592    
ec    62400  6.24           0.0001         157.74919     -2210.9422      10.419639      2520.6363      10246.592    
ec    62500  6.25           0.0001         163.40707     -2211.3159      10.793353      2418.4195      10246.592    
ec    62600  6.26           0.0001         150.83061     -2210.4852      9.9626536      2297.3199      10246.592    
ec    62700  6.27           0.0001         129.62162     -2209.0843      8.5617588      2239.9274      10246.592    
ec    62800  6.28           0.0001         125.26782     -2208.7967      8.2741821      2282.1283      10246.592    
ec    62900  6.29           0.0001         148.0579      -2210.3021      9.7795107      2355.8527      10246.592    
ec    63000  6.3            0.0001         167.86139     -2211.6102      11.08757       2415.2469      10246.592    
ec    63100  6.31           0.0001         156.62498     -2210.8679      10.345383      2498.0291      10246.592    
ec    63200  6.32           0.0001         153.88099     -2210.6867      10.164137      2508.4234      10246.592    
ec    63300  6.33           0.0001         159.21108     -2211.0388      10.5162        2459.7735      10246.592    
ec    63400  6.34           0.0001         145.59123     -2210.1391      9.6165822      2424.6863      10246.592    
ec    63500  6.35           0.0001         142.47532     -2209.9333      9.4107706      2336.3917      10246.592    
ec    63600  6.36           0.0001         151.81721     -2210.5504      10.02782       2252.2611      10246.592    
ec    63700  6.37           0.0001         141.37199     -2209.8605      9.3378934      2329.4544      10246.592    
ec    63800  6.38           0.0001         142.70189     -2209.9483      9.4257359      2417.67        10246.592    
ec    63900  6.39           0.0001         162.47609     -2211.2544      10.73186       2388.2166      10246.592    
ec    64000  6.4            0.0001         152.38174     -2210.5877      10.065109      2383.0383      10246.592    
ec    64100  6.41           0.0001         136.7868      -2209.5576      9.0350328      2390.1208      10246.592    
ec    64200  6.42           0.0001         150.58323     -2210.4689      9.9463138      2340.3186      10246.592    
ec    64300  6.43           0.0001         154.6057      -2210.7346      10.212006      2351.7072      10246.592    
ec    64400  6.44           0.0001         144.08203     -2210.0395      9.5168965      2429.8136      10246.592    
ec    64500  6.45           0.0001         152.83393     -2210.6175      10.094977      2451.7242      10246.592    
ec    64600  6.46           0.0001         159.78489     -2211.0767      10.554101      2452.985       10246.592    
ec    64700  6.47           0.0001         147.61245     -2210.2727      9.7500876      2454.8067      10246.592    
ec    64800  6.48           0.0001         141.50725     -2209.8694      9.3468276      2390.1946      10246.592    
ec    64900  6.49           0.0001         149.59969     -2210.4039      9.8813487      2302.0889      10246.592    
ec    65000  6.5            0.0001         148.04609     -2210.3013      9.7787304      2317.7202      10246.592    
ec    65100  6.51           0.0001         144.8898      -2210.0928      9.5702513      2394.3365      10246.592    
ec    65200  6.52           0.0001         156.32568     -2210.8482      10.325614      2444.6493      10246.592    
ec    65300  6.53           0.0001         167.80291     -2211.6063      11.083707      2453.2552      10246.592    
ec    65400  6.54           0.0001         157.06828     -2210.8972      10.374664      2451.7251      10246.592    
ec    65500  6.55           0.0001         137.45904     -2209.602       9.0794357      2438.7801      10246.592    
ec    65600  6.56           0.0001         135.42419     -2209.4676      8.9450294      2399.4583      10246.592    
ec    65700  6.57           0.0001         155.24344     -2210.7767      10.254129      2336.5371      10246.592    
ec    65800  6.58           0.0001         160.70191     -2211.1373      10.614672      2350.1368      10246.592    
ec    65900  6.59           0.0001         144.70668     -2210.0807      9.558156       2411.8733      10246.592    
ec    66000  6.6            0.0001         143.97097     -2210.0321      9.5095608      2381.9141      10246.592    
ec    66100  6.61           0.0001         150.46552     -2210.4611      9.9385383      2340.145       10246.592    
ec    66200  6.62           0.0001         141.97118     -2209.9         9.3774709      2376.8982      10246.592    
ec    66300  6.63           0.0001         144.3795      -2210.0591      9.536545       2368.1271      10246.592    
[...]
ec   884300  88.43          0.0001         309.13256     -2199.0244      20.418804      355.50029      10300.562    
ec   884400  88.44          0.0001         306.64821     -2198.8668      20.254707      418.52346      10300.562    
ec   884500  88.45          0.0001         325.7073      -2200.127       21.513597      337.27816      10300.562    
ec   884600  88.46          0.0001         315.76341     -2199.4656      20.856784      381.47739      10300.562    
ec   884700  88.47          0.0001         309.69097     -2199.0689      20.455688      357.30912      10300.562    
ec   884800  88.48          0.0001         322.74297     -2199.9255      21.317798      360.26951      10300.562    
ec   884900  88.49          0.0001         312.20441     -2199.2345      20.621705      391.9993       10300.562    
ec   885000  88.5           0.0001         317.27028     -2199.5677      20.956316      314.46794      10300.562    
ec   885100  88.51          0.0001         313.13953     -2199.2922      20.683472      374.73055      10300.562    
ec   885200  88.52          0.0001         309.98569     -2199.0872      20.475154      429.587        10300.562    
ec   885300  88.53          0.0001         327.65044     -2200.2547      21.641945      305.81644      10300.562    
ec   885400  88.54          0.0001         309.81014     -2199.0701      20.463559      366.04156      10300.562    
ec   885500  88.55          0.0001         310.45513     -2199.1183      20.506162      429.37526      10300.562    
ec   885600  88.56          0.0001         327.01792     -2200.212       21.600166      325.69449      10300.562    
ec   885700  88.57          0.0001         316.09879     -2199.4854      20.878937      349.98242      10300.562    
ec   885800  88.58          0.0001         302.0169      -2198.5612      19.948801      414.42799      10300.562    
ec   885900  88.59          0.0001         327.85478     -2200.2652      21.655442      339.13594      10300.562    
ec   886000  88.6           0.0001         317.97401     -2199.6107      21.002798      355.36241      10300.562    
ec   886100  88.61          0.0001         303.15487     -2198.6372      20.023966      367.8073       10300.562    
ec   886200  88.62          0.0001         323.40668     -2199.9724      21.361637      350.47228      10300.562    
ec   886300  88.63          0.0001         323.496       -2199.975       21.367537      402.03074      10300.562    
ec   886400  88.64          0.0001         309.70851     -2199.0679      20.456846      405.08638      10300.562    
ec   886500  88.65          0.0001         311.73301     -2199.2041      20.590568      352.61781      10300.562    
ec   886600  88.66          0.0001         318.87412     -2199.6706      21.062252      385.49776      10300.562    
ec   886700  88.67          0.0001         321.4473      -2199.8395      21.232216      381.41175      10300.562    
ec   886800  88.68          0.0001         302.25522     -2198.5772      19.964542      371.22302      10300.562    
ec   886900  88.69          0.0001         316.14802     -2199.4948      20.882188      348.76763      10300.562    
ec   887000  88.7           0.0001         326.19984     -2200.1543      21.54613       345.07095      10300.562    
ec   887100  88.71          0.0001         304.46834     -2198.7183      20.110723      405.42907      10300.562    
ec   887200  88.72          0.0001         312.88126     -2199.2849      20.666412      384.29822      10300.562    
ec   887300  88.73          0.0001         329.99727     -2200.4043      21.796958      330.1201       10300.562    
ec   887400  88.74          0.0001         305.61955     -2198.7926      20.186763      434.99228      10300.562    
ec   887500  88.75          0.0001         304.58521     -2198.7359      20.118442      432.403        10300.562    
ec   887600  88.76          0.0001         334.49918     -2200.7019      22.094318      300.86794      10300.562    
ec   887700  88.77          0.0001         300.2045      -2198.4359      19.829088      445.55594      10300.562    
ec   887800  88.78          0.0001         305.77459     -2198.8137      20.197003      410.02253      10300.562    
ec   887900  88.79          0.0001         335.39984     -2200.7642      22.153808      296.1983       10300.562    
ec   888000  88.8           0.0001         305.46464     -2198.7821      20.17653       388.49019      10300.562    
ec   888100  88.81          0.0001         308.7203      -2199.007       20.391573      412.27096      10300.562    
ec   888200  88.82          0.0001         330.51228     -2200.4436      21.830975      310.26084      10300.562    
ec   888300  88.83          0.0001         304.73049     -2198.7342      20.128038      412.83783      10300.562    
ec   888400  88.84          0.0001         310.17345     -2199.1015      20.487556      434.11751      10300.562    
ec   888500  88.85          0.0001         325.33491     -2200.0996      21.489         336.85746      10300.562    
ec   888600  88.86          0.0001         308.68478     -2199           20.389227      405.3868       10300.562    
ec   888700  88.87          0.0001         309.59792     -2199.0664      20.449541      354.03869      10300.562    
ec   888800  88.88          0.0001         326.43174     -2200.1687      21.561448      364.99816      10300.562    
ec   888900  88.89          0.0001         310.81911     -2199.1434      20.530203      399.09746      10300.562    
ec   889000  88.9           0.0001         315.86045     -2199.4771      20.863194      341.44861      10300.562    
ec   889100  88.91          0.0001         319.61324     -2199.7221      21.111073      343.01794      10300.562    
ec   889200  88.92          0.0001         305.33826     -2198.7815      20.168183      447.14348      10300.562    
ec   889300  88.93          0.0001         327.32911     -2200.2341      21.620721      364.95474      10300.562    
ec   889400  88.94          0.0001         310.22952     -2199.1044      20.49126       368.57912      10300.562    
ec   889500  88.95          0.0001         315.0257      -2199.4216      20.808057      391.17839      10300.562    
ec   889600  88.96          0.0001         323.01843     -2199.9513      21.335992      318.2468       10300.562    
ec   889700  88.97          0.0001         315.45714     -2199.4481      20.836555      375.68134      10300.562    
ec   889800  88.98          0.0001         314.04343     -2199.3594      20.743176      354.83733      10300.562    
ec   889900  88.99          0.0001         318.10718     -2199.6251      21.011595      380.20355      10300.562    
ec   890000  89             0.0001         318.34722     -2199.6414      21.02745       384.54298      10300.562    
ec   890100  89.01          0.0001         310.66984     -2199.1366      20.520344      383.46167      10300.562    
ec   890200  89.02          0.0001         318.42156     -2199.6477      21.03236       375.11791      10300.562    
ec   890300  89.03          0.0001         320.80194     -2199.8055      21.189589      368.57933      10300.562    
ec   890400  89.04          0.0001         316.64789     -2199.5287      20.915206      347.11496      10300.562    
ec   890500  89.05          0.0001         312.13409     -2199.2334      20.61706       383.80423      10300.562    
ec   890600  89.06          0.0001         323.33066     -2199.9709      21.356615      354.94846      10300.562    
ec   890700  89.07          0.0001         313.25238     -2199.3047      20.690925      396.29371      10300.562    
ec   890800  89.08          0.0001         306.12701     -2198.8388      20.220281      383.04894      10300.562    
ec   890900  89.09          0.0001         323.57879     -2199.9879      21.373005      369.48318      10300.562    
ec   891000  89.1           0.0001         316.34734     -2199.5065      20.895353      393.33265      10300.562    
ec   891100  89.11          0.0001         307.12308     -2198.9052      20.286074      420.06619      10300.562    
ec   891200  89.12          0.0001         323.35803     -2199.975       21.358423      336.06652      10300.562    
ec   891300  89.13          0.0001         315.04854     -2199.4211      20.809565      379.46439      10300.562    
ec   891400  89.14          0.0001         310.87571     -2199.1495      20.533942      427.09052      10300.562    
ec   891500  89.15          0.0001         318.49541     -2199.655       21.037238      343.40653      10300.562    
ec   891600  89.16          0.0001         311.60188     -2199.1956      20.581907      374.70797      10300.562    
ec   891700  89.17          0.0001         312.23495     -2199.2406      20.623722      406.01833      10300.562    
ec   891800  89.18          0.0001         320.75804     -2199.8034      21.186689      366.24108      10300.562    
ec   891900  89.19          0.0001         318.66878     -2199.6627      21.048689      362.20065      10300.562    
ec   892000  89.2           0.0001         310.28974     -2199.1098      20.495237      405.8448       10300.562    
ec   892100  89.21          0.0001         319.58528     -2199.7242      21.109226      399.65352      10300.562    
ec   892200  89.22          0.0001         315.52584     -2199.4577      20.841092      389.52648      10300.562    
ec   892300  89.23          0.0001         314.32015     -2199.3766      20.761454      350.42099      10300.562    
ec   892400  89.24          0.0001         315.17574     -2199.434       20.817967      375.87053      10300.562    
ec   892500  89.25          0.0001         319.71591     -2199.7323      21.117854      375.16455      10300.562    
ec   892600  89.26          0.0001         318.10439     -2199.6276      21.01141       376.45156      10300.562    
ec   892700  89.27          0.0001         313.69151     -2199.3366      20.719931      350.95491      10300.562    
ec   892800  89.28          0.0001         316.12444     -2199.4961      20.880631      377.67426      10300.562    
ec   892900  89.29          0.0001         318.0607      -2199.6245      21.008525      397.81888      10300.562    
ec   893000  89.3           0.0001         313.65886     -2199.3329      20.717774      380.432        10300.562    
ec   893100  89.31          0.0001         311.77635     -2199.21        20.593431      399.43829      10300.562    
ec   893200  89.32          0.0001         316.08318     -2199.4965      20.877905      404.07381      10300.562    
ec   893300  89.33          0.0001         323.82848     -2200.0052      21.389497      345.04905      10300.562    
ec   893400  89.34          0.0001         305.07027     -2198.7679      20.150481      400.92539      10300.562    
ec   893500  89.35          0.0001         317.73375     -2199.6057      20.986929      371.86423      10300.562    
ec   893600  89.36          0.0001         327.60176     -2200.2549      21.63873       337.2028       10300.562    
ec   893700  89.37          0.0001         296.82238     -2198.2232      19.605692      412.14025      10300.562    
ec   893800  89.38          0.0001         315.19177     -2199.4448      20.819026      397.93085      10300.562    
ec   893900  89.39          0.0001         330.69056     -2200.4572      21.842751      333.77292      10300.562    
ec   894000  89.4           0.0001         301.74957     -2198.5478      19.931142      458.70949      10300.562    
ec   894100  89.41          0.0001         305.41259     -2198.8045      20.173092      382.88562      10300.562    
ec   894200  89.42          0.0001         339.02779     -2201.0095      22.393441      293.68959      10300.562    
ec   894300  89.43          0.0001         298.15064     -2198.3145      19.693426      457.06504      10300.562    
ec   894400  89.44          0.0001         311.64227     -2199.2151      20.584574      359.15943      10300.562    
ec   894500  89.45          0.0001         333.6788      -2200.6608      22.04013       283.00432      10300.562    
ec   894600  89.46          0.0001         298.83908     -2198.3611      19.738899      442.18022      10300.562    
ec   894700  89.47          0.0001         315.10401     -2199.4453      20.813229      394.58218      10300.562    
ec   894800  89.48          0.0001         323.17929     -2199.9734      21.346617      337.36993      10300.562    
ec   894900  89.49          0.0001         304.64546     -2198.7493      20.122422      418.10676      10300.562    
ec   895000  89.5           0.0001         317.02867     -2199.5703      20.940357      355.03068      10300.562    
ec   895100  89.51          0.0001         316.42889     -2199.5305      20.90074       368.63837      10300.562    
ec   895200  89.52          0.0001         312.61254     -2199.2799      20.648663      362.61628      10300.562    
ec   895300  89.53          0.0001         316.70072     -2199.5494      20.918695      329.90052      10300.562    
ec   895400  89.54          0.0001         308.44815     -2199.0028      20.373597      423.71654      10300.562    
ec   895500  89.55          0.0001         318.21493     -2199.6562      21.018711      376.8512       10300.562    
ec   895600  89.56          0.0001         314.54706     -2199.4094      20.776442      338.61006      10300.562    
ec   895700  89.57          0.0001         309.57472     -2199.0812      20.448009      414.25069      10300.562    
ec   895800  89.58          0.0001         312.71456     -2199.2979      20.655401      398.1875       10300.562    
ec   895900  89.59          0.0001         329.40087     -2200.3897      21.757564      296.291        10300.562    
ec   896000  89.6           0.0001         296.30363     -2198.2119      19.571428      420.11257      10300.562    
ec   896100  89.61          0.0001         315.75279     -2199.4985      20.856082      335.23284      10300.562    
ec   896200  89.62          0.0001         333.89316     -2200.6922      22.054289      309.52376      10300.562    
ec   896300  89.63          0.0001         292.36121     -2197.9497      19.311023      427.4393       10300.562    
ec   896400  89.64          0.0001         316.54471     -2199.5565      20.90839       370.61097      10300.562    
ec   896500  89.65          0.0001         325.37557     -2200.1351      21.491686      310.13305      10300.562    
ec   896600  89.66          0.0001         304.94059     -2198.7821      20.141916      425.19114      10300.562    
ec   896700  89.67          0.0001         304.85619     -2198.7906      20.136341      370.15986      10300.562    
ec   896800  89.68          0.0001         333.07701     -2200.6426      22.000381      319.18611      10300.562    
ec   896900  89.69          0.0001         309.30294     -2199.0749      20.430057      413.17709      10300.562    
ec   897000  89.7           0.0001         298.15724     -2198.349       19.693862      352.04102      10300.562    
ec   897100  89.71          0.0001         331.65454     -2200.5541      21.906424      292.3841       10300.562    
ec   897200  89.72          0.0001         308.17812     -2199.0029      20.355761      390.42293      10300.562    
ec   897300  89.73          0.0001         305.89417     -2198.8581      20.204902      382.85133      10300.562    
ec   897400  89.74          0.0001         321.96348     -2199.9215      21.26631       310.87013      10300.562    
ec   897500  89.75          0.0001         310.70409     -2199.1721      20.522606      397.27765      10300.562    
ec   897600  89.76          0.0001         313.62693     -2199.3697      20.715665      372.95455      10300.562    
ec   897700  89.77          0.0001         313.71662     -2199.3792      20.72159       366.88495      10300.562    
ec   897800  89.78          0.0001         316.10474     -2199.5306      20.879329      353.74449      10300.562    
ec   897900  89.79          0.0001         311.73341     -2199.2476      20.590595      368.12915      10300.562    
ec   898000  89.8           0.0001         310.69233     -2199.1787      20.521829      348.26888      10300.562    
ec   898100  89.81          0.0001         318.58571     -2199.7046      21.043202      337.9667       10300.562    
ec   898200  89.82          0.0001         313.72937     -2199.3811      20.722432      304.84668      10300.562    
ec   898300  89.83          0.0001         315.6776      -2199.506       20.851116      381.19991      10300.562    
ec   898400  89.84          0.0001         308.03988     -2199.0121      20.34663       399.96875      10300.562    
ec   898500  89.85          0.0001         325.3331      -2200.1454      21.48888       291.10103      10300.562    
ec   898600  89.86          0.0001         302.70983     -2198.6546      19.994569      388.12944      10300.562    
ec   898700  89.87          0.0001         307.92129     -2199.0036      20.338796      392.68115      10300.562    
ec   898800  89.88          0.0001         335.78703     -2200.8379      22.179383      295.81469      10300.562    
ec   898900  89.89          0.0001         295.57262     -2198.1825      19.523143      394.11778      10300.562    
ec   899000  89.9           0.0001         315.0276      -2199.4726      20.808182      360.92987      10300.562    
ec   899100  89.91          0.0001         330.36143     -2200.482       21.821011      307.5243       10300.562    
ec   899200  89.92          0.0001         301.14724     -2198.5483      19.891358      366.77886      10300.562    
ec   899300  89.93          0.0001         308.98008     -2199.0758      20.408732      386.84512      10300.562    
ec   899400  89.94          0.0001         325.80402     -2200.1783      21.519985      302.84616      10300.562    
ec   899500  89.95          0.0001         311.39671     -2199.2253      20.568355      418.26699      10300.562    
ec   899600  89.96          0.0001         302.18166     -2198.6271      19.959683      373.56477      10300.562    
ec   899700  89.97          0.0001         329.04487     -2200.3907      21.73405       328.16722      10300.562    
ec   899800  89.98          0.0001         310.99562     -2199.2004      20.541862      363.216        10300.562    
ec   899900  89.99          0.0001         307.38105     -2198.9625      20.303113      376.45311      10300.562    
Fix halt condition for fix-id myhalt met on step 900000 with value 90 (../fix_halt.cpp:240)
ec   900000  90             0.0001         322.67248     -2199.9724      21.313141      347.09282      10300.562    
Loop time of 53.7371 on 2 procs for 300000 steps with 512 atoms

Performance: 48.235 ns/day, 0.498 hours/ns, 5582.734 timesteps/s, 2.858 Matom-step/s
96.9% CPU use with 2 MPI tasks x no OpenMP threads

MPI task timing breakdown:
Section |  min time  |  avg time  |  max time  |%varavg| %total
---------------------------------------------------------------
Pair    | 46.37      | 46.834     | 47.299     |   6.8 | 87.15
Neigh   | 0          | 0          | 0          |   0.0 |  0.00
Comm    | 4.3764     | 4.8423     | 5.3081     |  21.2 |  9.01
Output  | 0.026048   | 0.044682   | 0.063317   |   8.8 |  0.08
Modify  | 1.4554     | 1.4787     | 1.5019     |   1.9 |  2.75
Other   |            | 0.5372     |            |       |  1.00

Nlocal:            256 ave         259 max         253 min
Histogram: 1 0 0 0 0 0 0 0 0 1
Nghost:           1081 ave        1084 max        1078 min
Histogram: 1 0 0 0 0 0 0 0 0 1
Neighs:              0 ave           0 max           0 min
Histogram: 2 0 0 0 0 0 0 0 0 0
FullNghs:         8705 ave        8806 max        8604 min
Histogram: 1 0 0 0 0 0 0 0 0 1

Total # of neighbors = 17410
Ave neighs/atom = 34.003906
Neighbor list builds = 0
Dangerous builds = 0

write_data cell.data
System init for write_data ...
WARNING: One or more atoms are time integrated more than once (../modify.cpp:296)
Total wall time: 0:02:56
