

units metal
timestep 0.001
boundary p p p

lattice         diamond 5.43
Lattice spacing in x,y,z = 5.43 5.43 5.43
region          box block 0 ${N} 0 ${N} 0 ${N}
region          box block 0 4 0 ${N} 0 ${N}
region          box block 0 4 0 4 0 ${N}
region          box block 0 4 0 4 0 4
create_box      1 box
Created orthogonal box = (0 0 0) to (21.72 21.72 21.72)
  1 by 1 by 2 MPI processor grid
create_atoms    1 box
Created 512 atoms
  using lattice units in orthogonal box = (0 0 0) to (21.72 21.72 21.72)
  create_atoms CPU = 0.000 seconds

timestep ${dt}
timestep 0.001

mass 1 28.0855
labelmap atom 1 Si

pair_style sw
pair_coeff * * Si.sw Si
Reading sw potential file Si.sw with DATE: 2007-06-11

thermo 100
thermo_style	custom step time dt temp pe ke press vol
thermo_modify	line one flush yes format 1 "ec %8lu" flush yes


velocity all create 300.0 4928459 mom yes rot yes dist gaussian

variable t equal time
fix myhalt all halt 100 v_t >= 30.0 error continue

fix NVE all nve

run 10000000

CITE-CITE-CITE-CITE-CITE-CITE-CITE-CITE-CITE-CITE-CITE-CITE-CITE

Your simulation uses code contributions which should be cited:

- Type Label Framework: https://doi.org/10.1021/acs.jpcb.3c08419

@Article{Gissinger24,
 author = {Jacob R. Gissinger, Ilia Nikiforov, Yaser Afshar, Brendon Waters, Moon-ki Choi, Daniel S. Karls, Alexander Stukowski, Wonpil Im, Hendrik Heinz, Axel Kohlmeyer, and Ellad B. Tadmor},
 title = {Type Label Framework for Bonded Force Fields in LAMMPS},
 journal = {J. Phys. Chem. B},
 year =    2024,
 volume =  128,
 number =  13,
 pages =   {3282--3297}
}

CITE-CITE-CITE-CITE-CITE-CITE-CITE-CITE-CITE-CITE-CITE-CITE-CITE

Neighbor list info ...
  update: every = 1 steps, delay = 0 steps, check = yes
  max neighbors/atom: 2000, page size: 100000
  master list distance cutoff = 5.77118
  ghost atom cutoff = 5.77118
  binsize = 2.88559, bins = 8 8 8
  1 neighbor lists, perpetual/occasional/extra = 1 0 0
  (1) pair sw, perpetual
      attributes: full, newton on
      pair build: full/bin/atomonly
      stencil: full/bin/3d
      bin: standard
Per MPI rank memory allocation (min/avg/max) = 3.237 | 3.237 | 3.237 Mbytes
   Step          Time            Dt            Temp          PotEng         KinEng         Press          Volume    
ec        0  0              0.001          300           -2220.3383      19.81558       2598.169       10246.592    
ec      100  0.1            0.001          141.62619     -2209.8589      9.3546841      2568.0047      10246.592    
ec      200  0.2            0.001          125.9437      -2208.8216      8.318825       2582.0397      10246.592    
ec      300  0.3            0.001          151.18344     -2210.4941      9.9859587      2354.0266      10246.592    
ec      400  0.4            0.001          128.63207     -2209.0023      8.4963968      2237.5402      10246.592    
ec      500  0.5            0.001          152.34169     -2210.5704      10.062463      2289.8416      10246.592    
ec      600  0.6            0.001          156.11939     -2210.8204      10.311988      2362.261       10246.592    
ec      700  0.7            0.001          119.08127     -2208.3694      7.865548       2327.6415      10246.592    
ec      800  0.8            0.001          159.41646     -2211.0389      10.529766      2317.7828      10246.592    
ec      900  0.9            0.001          155.34506     -2210.7678      10.260842      2496.9124      10246.592    
ec     1000  1              0.001          130.03519     -2209.0935      8.5890756      2511.9345      10246.592    
ec     1100  1.1            0.001          161.89117     -2211.2021      10.693225      2423.997       10246.592    
ec     1200  1.2            0.001          150.0495      -2210.4186      9.9110598      2301.4262      10246.592    
ec     1300  1.3            0.001          139.06231     -2209.6912      9.1853348      2382.4417      10246.592    
ec     1400  1.4            0.001          162.4685      -2211.2402      10.731359      2255.3615      10246.592    
ec     1500  1.5            0.001          146.45532     -2210.1808      9.6736571      2422.5102      10246.592    
ec     1600  1.6            0.001          142.64855     -2209.9278      9.4222126      2456.3418      10246.592    
ec     1700  1.7            0.001          163.69666     -2211.3218      10.812481      2357.4701      10246.592    
ec     1800  1.8            0.001          166.88455     -2211.5317      11.023047      2442.9654      10246.592    
ec     1900  1.9            0.001          150.734       -2210.4616      9.956272       2543.5925      10246.592    
ec     2000  2              0.001          156.63294     -2210.8536      10.345909      2523.1939      10246.592    
ec     2100  2.1            0.001          131.20681     -2209.171       8.6664637      2453.8429      10246.592    
ec     2200  2.2            0.001          152.43435     -2210.5764      10.068584      2388.1352      10246.592    
ec     2300  2.3            0.001          130.73819     -2209.1417      8.6355105      2244.9642      10246.592    
ec     2400  2.4            0.001          118.23842     -2208.3151      7.8098761      2224.7379      10246.592    
ec     2500  2.5            0.001          150.87991     -2210.4747      9.9659096      2298.1573      10246.592    
ec     2600  2.6            0.001          149.75554     -2210.399       9.8916433      2382.8971      10246.592    
ec     2700  2.7            0.001          139.64277     -2209.7277      9.2236752      2495.5696      10246.592    
ec     2800  2.8            0.001          172.31754     -2211.8918      11.381907      2420.7148      10246.592    
ec     2900  2.9            0.001          147.55318     -2210.2529      9.7461729      2434.1867      10246.592    
ec     3000  3              0.001          155.79406     -2210.7968      10.290499      2542.7213      10246.592    
ec     3100  3.1            0.001          162.58254     -2211.2461      10.738891      2574.8686      10246.592    
ec     3200  3.2            0.001          164.97546     -2211.4052      10.896948      2433.1808      10246.592    
ec     3300  3.3            0.001          150.03226     -2210.4171      9.909921       2388.4664      10246.592    
ec     3400  3.4            0.001          125.33278     -2208.7832      8.2784725      2353.4133      10246.592    
ec     3500  3.5            0.001          150.76358     -2210.4651      9.9582263      2313.7247      10246.592    
ec     3600  3.6            0.001          162.78433     -2211.2607      10.75222       2413.155       10246.592    
ec     3700  3.7            0.001          146.45302     -2210.1801      9.6735052      2394.6262      10246.592    
ec     3800  3.8            0.001          143.87444     -2210.0075      9.503185       2630.1779      10246.592    
ec     3900  3.9            0.001          137.95408     -2209.618       9.1121338      2402.3575      10246.592    
ec     4000  4              0.001          163.93327     -2211.3375      10.82811       2355.9777      10246.592    
ec     4100  4.1            0.001          170.03524     -2211.7396      11.231156      2487.8655      10246.592    
ec     4200  4.2            0.001          133.71791     -2209.3377      8.8323264      2320.5617      10246.592    
ec     4300  4.3            0.001          146.79065     -2210.2043      9.6958066      2234.4156      10246.592    
ec     4400  4.4            0.001          151.06538     -2210.4847      9.9781608      2370.5297      10246.592    
ec     4500  4.5            0.001          139.50311     -2209.7207      9.21445        2375.8752      10246.592    
ec     4600  4.6            0.001          159.16728     -2211.0214      10.513307      2389.7814      10246.592    
ec     4700  4.7            0.001          151.23365     -2210.4949      9.989275       2561.959       10246.592    
ec     4800  4.8            0.001          145.97245     -2210.1489      9.6417627      2383.3462      10246.592    
ec     4900  4.9            0.001          174.47127     -2212.033       11.524165      2400.0686      10246.592    
ec     5000  5              0.001          143.35208     -2209.9751      9.4686823      2410.1722      10246.592    
ec     5100  5.1            0.001          144.41036     -2210.0451      9.5385834      2402.8612      10246.592    
ec     5200  5.2            0.001          130.08562     -2209.0985      8.5924065      2287.6255      10246.592    
ec     5300  5.3            0.001          134.25359     -2209.3725      8.8677091      2383.9411      10246.592    
ec     5400  5.4            0.001          149.34824     -2210.373       9.8647401      2265.5273      10246.592    
ec     5500  5.5            0.001          148.04633     -2210.2858      9.7787467      2249.7747      10246.592    
ec     5600  5.6            0.001          144.13137     -2210.0265      9.520156       2411.7979      10246.592    
ec     5700  5.7            0.001          170.73302     -2211.7871      11.277246      2347.3067      10246.592    
ec     5800  5.8            0.001          162.50608     -2211.2415      10.733841      2489.1155      10246.592    
ec     5900  5.9            0.001          144.37937     -2210.0424      9.5365363      2522.5685      10246.592    
ec     6000  6              0.001          159.44131     -2211.0392      10.531407      2432.5533      10246.592    
ec     6100  6.1            0.001          139.23542     -2209.7037      9.196769       2361.8981      10246.592    
ec     6200  6.2            0.001          137.84705     -2209.6107      9.1050643      2402.0003      10246.592    
ec     6300  6.3            0.001          165.95658     -2211.4701      10.961753      2418.307       10246.592    
ec     6400  6.4            0.001          147.46683     -2210.2471      9.740469       2394.7279      10246.592    
ec     6500  6.5            0.001          146.16575     -2210.1614      9.6545304      2325.301       10246.592    
ec     6600  6.6            0.001          146.77369     -2210.2018      9.6946859      2368.8203      10246.592    
ec     6700  6.7            0.001          142.61084     -2209.9264      9.4197218      2323.1281      10246.592    
ec     6800  6.8            0.001          151.68859     -2210.5266      10.019324      2401.869       10246.592    
ec     6900  6.9            0.001          166.04048     -2211.4754      10.967295      2519.9094      10246.592    
ec     7000  7              0.001          134.58996     -2209.3951      8.8899272      2452.4045      10246.592    
ec     7100  7.1            0.001          155.90386     -2210.8049      10.297751      2439.6735      10246.592    
ec     7200  7.2            0.001          164.07636     -2211.3462      10.837561      2408.8768      10246.592    
ec     7300  7.3            0.001          153.3025      -2210.6337      10.125927      2372.9067      10246.592    
ec     7400  7.4            0.001          159.85186     -2211.0661      10.558525      2405.8582      10246.592    
ec     7500  7.5            0.001          152.10251     -2210.5541      10.046665      2384.4491      10246.592    
ec     7600  7.6            0.001          151.3443      -2210.5029      9.9965835      2475.9179      10246.592    
ec     7700  7.7            0.001          153.65226     -2210.6557      10.149029      2500.2273      10246.592    
ec     7800  7.8            0.001          145.00496     -2210.0845      9.577858       2493.3475      10246.592    
ec     7900  7.9            0.001          156.8605      -2210.8681      10.36094       2527.3234      10246.592    
ec     8000  8              0.001          138.8536      -2209.6778      9.1715486      2430.2952      10246.592    
ec     8100  8.1            0.001          147.82825     -2210.2715      9.7643419      2327.5838      10246.592    
ec     8200  8.2            0.001          145.53547     -2210.12        9.6128994      2252.412       10246.592    
ec     8300  8.3            0.001          140.50657     -2209.7876      9.2807308      2203.5671      10246.592    
ec     8400  8.4            0.001          141.85347     -2209.8773      9.3696958      2253.3395      10246.592    
ec     8500  8.5            0.001          152.67379     -2210.5914      10.084399      2462.6576      10246.592    
ec     8600  8.6            0.001          142.33764     -2209.9079      9.4016767      2375.7755      10246.592    
ec     8700  8.7            0.001          152.29947     -2210.5673      10.059674      2401.9475      10246.592    
ec     8800  8.8            0.001          147.87623     -2210.2742      9.767511       2403.0289      10246.592    
ec     8900  8.9            0.001          153.49879     -2210.6459      10.138892      2552.7716      10246.592    
ec     9000  9              0.001          163.9792      -2211.3393      10.831143      2434.8145      10246.592    
ec     9100  9.1            0.001          159.44224     -2211.0387      10.531468      2501.2367      10246.592    
ec     9200  9.2            0.001          138.98746     -2209.6864      9.1803903      2392.7262      10246.592    
ec     9300  9.3            0.001          130.95293     -2209.1552      8.6496946      2306.7427      10246.592    
ec     9400  9.4            0.001          139.8742      -2209.7448      9.2389617      2431.3642      10246.592    
ec     9500  9.5            0.001          165.00278     -2211.4074      10.898753      2373.1755      10246.592    
ec     9600  9.6            0.001          144.12587     -2210.0264      9.5197928      2393.858       10246.592    
ec     9700  9.7            0.001          143.31345     -2209.9729      9.4661308      2391.0779      10246.592    
ec     9800  9.8            0.001          146.063       -2210.1553      9.6477434      2312.7465      10246.592    
ec     9900  9.9            0.001          137.00663     -2209.5552      9.0495527      2320.9289      10246.592    
ec    10000  10             0.001          166.14634     -2211.4834      10.974287      2412.2264      10246.592    
ec    10100  10.1           0.001          150.05478     -2210.4182      9.9114086      2417.6401      10246.592    
ec    10200  10.2           0.001          142.40876     -2209.9123      9.4063739      2405.0316      10246.592    
ec    10300  10.3           0.001          143.08334     -2209.9581      9.4509315      2320.6933      10246.592    
ec    10400  10.4           0.001          157.11692     -2210.8852      10.377877      2402.5081      10246.592    
ec    10500  10.5           0.001          152.43095     -2210.5757      10.068359      2428.896       10246.592    
ec    10600  10.6           0.001          161.06513     -2211.1472      10.638663      2423.7416      10246.592    
ec    10700  10.7           0.001          152.70456     -2210.5919      10.086432      2582.8333      10246.592    
ec    10800  10.8           0.001          148.85607     -2210.3391      9.8322312      2455.7156      10246.592    
ec    10900  10.9           0.001          167.0283      -2211.5407      11.032542      2479.5453      10246.592    
ec    11000  11             0.001          146.03326     -2210.1512      9.6457789      2578.3794      10246.592    
ec    11100  11.1           0.001          143.20916     -2209.9653      9.4592417      2453.7354      10246.592    
ec    11200  11.2           0.001          155.13203     -2210.7551      10.246771      2290.3049      10246.592    
ec    11300  11.3           0.001          154.34685     -2210.7034      10.194908      2221.1599      10246.592    
ec    11400  11.4           0.001          138.43977     -2209.6511      9.1442142      2187.004       10246.592    
ec    11500  11.5           0.001          138.7546      -2209.6711      9.1650098      2358.3663      10246.592    
ec    11600  11.6           0.001          156.55205     -2210.8487      10.340566      2426.9106      10246.592    
ec    11700  11.7           0.001          161.85        -2211.1979      10.690506      2512.4971      10246.592    
ec    11800  11.8           0.001          158.44086     -2210.9731      10.465325      2397.4783      10246.592    
ec    11900  11.9           0.001          136.51432     -2209.5223      9.0170347      2437.3617      10246.592    
ec    12000  12             0.001          148.66051     -2210.3265      9.8193141      2372.7407      10246.592    
ec    12100  12.1           0.001          148.33847     -2210.3049      9.7980427      2412.9807      10246.592    
ec    12200  12.2           0.001          157.44341     -2210.9073      10.399442      2424.7518      10246.592    
ec    12300  12.3           0.001          156.55748     -2210.8491      10.340924      2360.0366      10246.592    
ec    12400  12.4           0.001          139.63401     -2209.7302      9.2230963      2361.9112      10246.592    
ec    12500  12.5           0.001          139.03329     -2209.689       9.1834177      2432.1166      10246.592    
ec    12600  12.6           0.001          156.40648     -2210.8389      10.330951      2433.605       10246.592    
ec    12700  12.7           0.001          153.5118      -2210.6468      10.139751      2490.6027      10246.592    
ec    12800  12.8           0.001          147.64499     -2210.2589      9.7522371      2433.829       10246.592    
ec    12900  12.9           0.001          141.02232     -2209.8215      9.3147971      2318.7852      10246.592    
ec    13000  13             0.001          154.61344     -2210.7206      10.212516      2317.3889      10246.592    
ec    13100  13.1           0.001          156.79699     -2210.8652      10.356745      2256.2668      10246.592    
ec    13200  13.2           0.001          147.62549     -2210.2575      9.750949       2377.1422      10246.592    
ec    13300  13.3           0.001          138.40084     -2209.6478      9.1416429      2382.8195      10246.592    
ec    13400  13.4           0.001          143.7362      -2210.0013      9.4940543      2260.9926      10246.592    
ec    13500  13.5           0.001          147.66813     -2210.2602      9.7537653      2414.5562      10246.592    
ec    13600  13.6           0.001          165.04054     -2211.4092      10.901247      2492.4809      10246.592    
ec    13700  13.7           0.001          148.71815     -2210.3294      9.8231212      2491.5006      10246.592    
ec    13800  13.8           0.001          151.2988      -2210.5004      9.9935782      2519.6049      10246.592    
ec    13900  13.9           0.001          155.47725     -2210.7769      10.269573      2426.4109      10246.592    
ec    14000  14             0.001          147.51532     -2210.2502      9.7436721      2412.4893      10246.592    
ec    14100  14.1           0.001          155.02218     -2210.7479      10.239515      2380.9848      10246.592    
ec    14200  14.2           0.001          152.74293     -2210.5963      10.088966      2395.0521      10246.592    
ec    14300  14.3           0.001          130.88656     -2209.1496      8.6453106      2429.3837      10246.592    
ec    14400  14.4           0.001          149.69503     -2210.3949      9.8876463      2342.7874      10246.592    
ec    14500  14.5           0.001          158.12777     -2210.9524      10.444645      2363.5428      10246.592    
ec    14600  14.6           0.001          151.29978     -2210.501       9.993643       2365.1166      10246.592    
ec    14700  14.7           0.001          151.25786     -2210.4977      9.9908745      2437.917       10246.592    
ec    14800  14.8           0.001          169.47312     -2211.7022      11.194028      2482.8759      10246.592    
ec    14900  14.9           0.001          149.93495     -2210.4101      9.9034935      2457.8725      10246.592    
ec    15000  15             0.001          137.08809     -2209.5598      9.0549338      2424.2348      10246.592    
ec    15100  15.1           0.001          147.05872     -2210.2198      9.7135128      2381.1479      10246.592    
ec    15200  15.2           0.001          150.28412     -2210.4353      9.9265567      2281.6044      10246.592    
ec    15300  15.3           0.001          153.17917     -2210.6249      10.11778       2388.0946      10246.592    
ec    15400  15.4           0.001          148.46605     -2210.3132      9.8064698      2449.5988      10246.592    
ec    15500  15.5           0.001          142.79793     -2209.938       9.4320798      2481.8603      10246.592    
ec    15600  15.6           0.001          150.61209     -2210.4561      9.9482197      2371.494       10246.592    
ec    15700  15.7           0.001          149.3144      -2210.3696      9.8625051      2391.1305      10246.592    
ec    15800  15.8           0.001          149.81263     -2210.402       9.895414       2422.2352      10246.592    
ec    15900  15.9           0.001          144.5434      -2210.055       9.5473708      2288.4729      10246.592    
ec    16000  16             0.001          134.27866     -2209.3749      8.8693652      2337.5078      10246.592    
ec    16100  16.1           0.001          138.46417     -2209.6525      9.145826       2251.8798      10246.592    
ec    16200  16.2           0.001          153.48687     -2210.6458      10.138105      2280.2593      10246.592    
ec    16300  16.3           0.001          158.0032      -2210.9442      10.436417      2389.0151      10246.592    
ec    16400  16.4           0.001          157.84362     -2210.9333      10.425876      2451.3612      10246.592    
ec    16500  16.5           0.001          143.67943     -2209.9965      9.490304       2408.7157      10246.592    
ec    16600  16.6           0.001          158.00402     -2210.9434      10.436471      2472.2999      10246.592    
ec    16700  16.7           0.001          156.34292     -2210.8347      10.326752      2369.2912      10246.592    
ec    16800  16.8           0.001          141.3331      -2209.8404      9.3353248      2530.4337      10246.592    
ec    16900  16.9           0.001          150.26739     -2210.4326      9.9254515      2400.6184      10246.592    
ec    17000  17             0.001          152.24035     -2210.5639      10.05577       2317.8803      10246.592    
ec    17100  17.1           0.001          150.14043     -2210.4242      9.9170661      2338.5246      10246.592    
ec    17200  17.2           0.001          143.19917     -2209.9656      9.4585821      2278.5481      10246.592    
ec    17300  17.3           0.001          147.4771      -2210.2483      9.7411475      2356.5737      10246.592    
ec    17400  17.4           0.001          149.73984     -2210.3975      9.8906062      2418.4327      10246.592    
ec    17500  17.5           0.001          143.25228     -2209.9684      9.4620901      2352.7932      10246.592    
ec    17600  17.6           0.001          149.20912     -2210.3623      9.8555507      2371.4968      10246.592    
ec    17700  17.7           0.001          154.47709     -2210.7112      10.20351       2343.7892      10246.592    
ec    17800  17.8           0.001          149.43679     -2210.3779      9.8705889      2304.5564      10246.592    
ec    17900  17.9           0.001          148.76873     -2210.3332      9.8264626      2449.7766      10246.592    
ec    18000  18             0.001          167.82229     -2211.5928      11.084987      2519.7091      10246.592    
ec    18100  18.1           0.001          165.34278     -2211.4295      10.92121       2465.9455      10246.592    
ec    18200  18.2           0.001          148.60457     -2210.3217      9.8156195      2468.2103      10246.592    
ec    18300  18.3           0.001          149.59006     -2210.3868      9.8807128      2451.3206      10246.592    
ec    18400  18.4           0.001          156.51127     -2210.8461      10.337872      2382.5043      10246.592    
ec    18500  18.5           0.001          154.55886     -2210.7166      10.208912      2375.2961      10246.592    
ec    18600  18.6           0.001          147.90588     -2210.2751      9.7694697      2493.6754      10246.592    
ec    18700  18.7           0.001          141.63516     -2209.8622      9.3552764      2338.5857      10246.592    
ec    18800  18.8           0.001          153.22974     -2210.6294      10.121121      2284.0353      10246.592    
ec    18900  18.9           0.001          157.71937     -2210.9258      10.41767       2342.8962      10246.592    
ec    19000  19             0.001          132.40762     -2209.2512      8.7457796      2343.717       10246.592    
ec    19100  19.1           0.001          142.06216     -2209.8901      9.3834803      2346.4176      10246.592    
ec    19200  19.2           0.001          145.38443     -2210.1104      9.6029231      2319.4235      10246.592    
ec    19300  19.3           0.001          143.33538     -2209.9746      9.467579       2317.1027      10246.592    
ec    19400  19.4           0.001          147.68399     -2210.2611      9.7548129      2401.5254      10246.592    
ec    19500  19.5           0.001          161.09934     -2211.1488      10.640923      2469.3364      10246.592    
ec    19600  19.6           0.001          156.43845     -2210.8404      10.333062      2464.3865      10246.592    
ec    19700  19.7           0.001          152.0099      -2210.5481      10.040548      2358.3558      10246.592    
ec    19800  19.8           0.001          143.94294     -2210.0139      9.5077095      2409.806       10246.592    
ec    19900  19.9           0.001          148.74467     -2210.3309      9.8248728      2440.123       10246.592    
ec    20000  20             0.001          153.51218     -2210.647       10.139777      2374.2664      10246.592    
ec    20100  20.1           0.001          151.05158     -2210.4842      9.9772488      2405.4055      10246.592    
ec    20200  20.2           0.001          158.79028     -2210.9957      10.488405      2443.361       10246.592    
ec    20300  20.3           0.001          140.35098     -2209.7775      9.2704539      2235.8906      10246.592    
ec    20400  20.4           0.001          144.89808     -2210.0768      9.5707984      2423.2943      10246.592    
ec    20500  20.5           0.001          143.23489     -2209.9681      9.4609413      2285.9352      10246.592    
ec    20600  20.6           0.001          146.31134     -2210.1713      9.6641468      2349.3322      10246.592    
ec    20700  20.7           0.001          140.21457     -2209.7673      9.2614435      2391.8991      10246.592    
ec    20800  20.8           0.001          148.67767     -2210.3278      9.8204473      2316.5393      10246.592    
ec    20900  20.9           0.001          150.86788     -2210.4728      9.9651156      2343.6891      10246.592    
ec    21000  21             0.001          144.63152     -2210.0597      9.5531915      2385.58        10246.592    
ec    21100  21.1           0.001          158.20963     -2210.9568      10.450052      2511.9041      10246.592    
ec    21200  21.2           0.001          150.63053     -2210.4557      9.9494381      2509.9052      10246.592    
ec    21300  21.3           0.001          171.06917     -2211.8085      11.299449      2394.6654      10246.592    
ec    21400  21.4           0.001          148.25257     -2210.2995      9.792369       2358.9369      10246.592    
ec    21500  21.5           0.001          140.74962     -2209.8021      9.2967845      2412.086       10246.592    
ec    21600  21.6           0.001          142.53671     -2209.9205      9.4148257      2388.2053      10246.592    
ec    21700  21.7           0.001          159.18299     -2211.0218      10.514344      2451.9431      10246.592    
ec    21800  21.8           0.001          161.31319     -2211.1628      10.655048      2426.2524      10246.592    
ec    21900  21.9           0.001          149.27645     -2210.3666      9.8599985      2399.4103      10246.592    
ec    22000  22             0.001          153.26039     -2210.6305      10.123145      2398.2852      10246.592    
ec    22100  22.1           0.001          161.22873     -2211.158       10.649469      2383.9674      10246.592    
ec    22200  22.2           0.001          141.87414     -2209.8768      9.3710616      2407.7335      10246.592    
ec    22300  22.3           0.001          131.01629     -2209.1598      8.6538792      2304.5202      10246.592    
ec    22400  22.4           0.001          144.54718     -2210.0547      9.5476207      2345.3403      10246.592    
ec    22500  22.5           0.001          142.65694     -2209.93        9.4227668      2288.0677      10246.592    
ec    22600  22.6           0.001          153.06139     -2210.6174      10.110001      2432.2879      10246.592    
ec    22700  22.7           0.001          159.75947     -2211.0589      10.552422      2564.9716      10246.592    
ec    22800  22.8           0.001          145.22236     -2210.0988      9.5922179      2421.5693      10246.592    
ec    22900  22.9           0.001          156.7216      -2210.8598      10.351765      2344.637       10246.592    
ec    23000  23             0.001          150.94711     -2210.4772      9.9703488      2362.0942      10246.592    
ec    23100  23.1           0.001          144.3431      -2210.0405      9.5341408      2345.0637      10246.592    
ec    23200  23.2           0.001          147.25563     -2210.2333      9.7265189      2404.4914      10246.592    
ec    23300  23.3           0.001          152.05483     -2210.5508      10.043516      2407.7268      10246.592    
ec    23400  23.4           0.001          144.82091     -2210.073       9.5657013      2309.5948      10246.592    
ec    23500  23.5           0.001          149.81192     -2210.4024      9.8953669      2344.7346      10246.592    
ec    23600  23.6           0.001          148.35567     -2210.3064      9.7991787      2346.7182      10246.592    
ec    23700  23.7           0.001          154.19354     -2210.6923      10.184782      2410.6879      10246.592    
ec    23800  23.8           0.001          158.18537     -2210.9566      10.44845       2366.5701      10246.592    
ec    23900  23.9           0.001          145.42449     -2210.1118      9.6055691      2408.2585      10246.592    
ec    24000  24             0.001          145.18334     -2210.0951      9.5896407      2492.9561      10246.592    
ec    24100  24.1           0.001          145.11174     -2210.0926      9.5849112      2296.6915      10246.592    
ec    24200  24.2           0.001          148.67124     -2210.3273      9.8200232      2428.1578      10246.592    
ec    24300  24.3           0.001          150.84635     -2210.4707      9.9636929      2426.0338      10246.592    
ec    24400  24.4           0.001          144.4178      -2210.0456      9.5390749      2399.6458      10246.592    
ec    24500  24.5           0.001          150.5628      -2210.4521      9.944964       2429.7183      10246.592    
ec    24600  24.6           0.001          160.98209     -2211.1415      10.633178      2414.6083      10246.592    
ec    24700  24.7           0.001          148.40758     -2210.3094      9.8026076      2426.6134      10246.592    
ec    24800  24.8           0.001          153.13669     -2210.6213      10.114974      2481.0154      10246.592    
ec    24900  24.9           0.001          167.4601      -2211.5697      11.061064      2444.1251      10246.592    
ec    25000  25             0.001          137.78752     -2209.6072      9.1011323      2357.6624      10246.592    
ec    25100  25.1           0.001          150.70452     -2210.4617      9.9543249      2397.2512      10246.592    
ec    25200  25.2           0.001          155.22348     -2210.7606      10.252811      2386.9598      10246.592    
ec    25300  25.3           0.001          149.21007     -2210.3623      9.8556137      2399.8382      10246.592    
ec    25400  25.4           0.001          155.78415     -2210.7984      10.289845      2342.4713      10246.592    
ec    25500  25.5           0.001          147.09719     -2210.2222      9.7160542      2475.5779      10246.592    
ec    25600  25.6           0.001          131.3628      -2209.1818      8.6767671      2414.6215      10246.592    
ec    25700  25.7           0.001          167.41949     -2211.5666      11.058381      2495.7474      10246.592    
ec    25800  25.8           0.001          164.7697      -2211.3911      10.883357      2542.9656      10246.592    
ec    25900  25.9           0.001          146.82999     -2210.2052      9.6984047      2465.6538      10246.592    
ec    26000  26             0.001          151.96488     -2210.5444      10.037574      2445.0941      10246.592    
ec    26100  26.1           0.001          133.82521     -2209.3459      8.8394138      2310.8376      10246.592    
ec    26200  26.2           0.001          153.89215     -2210.6732      10.164874      2326.1491      10246.592    
ec    26300  26.3           0.001          142.60559     -2209.9263      9.4193748      2351.5727      10246.592    
ec    26400  26.4           0.001          137.56654     -2209.5926      9.0865359      2354.71        10246.592    
ec    26500  26.5           0.001          149.36894     -2210.3728      9.8661071      2442.3948      10246.592    
ec    26600  26.6           0.001          158.3573      -2210.9678      10.459806      2380.8461      10246.592    
ec    26700  26.7           0.001          147.07941     -2210.2219      9.7148793      2375.9343      10246.592    
ec    26800  26.8           0.001          149.9794      -2210.4128      9.9064293      2446.7524      10246.592    
ec    26900  26.9           0.001          147.33007     -2210.2389      9.7314361      2347.1519      10246.592    
ec    27000  27             0.001          147.22916     -2210.2321      9.7247706      2331.9273      10246.592    
ec    27100  27.1           0.001          152.62814     -2210.588       10.081384      2490.4507      10246.592    
ec    27200  27.2           0.001          138.01994     -2209.623       9.1164841      2391.8387      10246.592    
ec    27300  27.3           0.001          140.20176     -2209.7661      9.2605977      2516.134       10246.592    
ec    27400  27.4           0.001          153.01104     -2210.6143      10.106675      2413.8738      10246.592    
ec    27500  27.5           0.001          161.63879     -2211.1849      10.676555      2442.8672      10246.592    
ec    27600  27.6           0.001          154.90973     -2210.739       10.232088      2489.4233      10246.592    
ec    27700  27.7           0.001          151.36252     -2210.5049      9.9977875      2450.1389      10246.592    
ec    27800  27.8           0.001          151.51143     -2210.5151      10.007623      2377.2151      10246.592    
ec    27900  27.9           0.001          142.30312     -2209.9063      9.3993963      2304.9735      10246.592    
ec    28000  28             0.001          148.71102     -2210.33        9.8226505      2327.3589      10246.592    
ec    28100  28.1           0.001          136.59323     -2209.528       9.0222469      2382.3526      10246.592    
ec    28200  28.2           0.001          144.77892     -2210.0698      9.5629278      2362.0028      10246.592    
ec    28300  28.3           0.001          149.8492      -2210.4051      9.8978293      2315.7551      10246.592    
ec    28400  28.4           0.001          164.09529     -2211.3469      10.838812      2408.1525      10246.592    
ec    28500  28.5           0.001          150.22571     -2210.429       9.9226984      2466.9594      10246.592    
ec    28600  28.6           0.001          148.38472     -2210.3077      9.8010978      2482.9132      10246.592    
ec    28700  28.7           0.001          160.79248     -2211.1286      10.620654      2472.0644      10246.592    
ec    28800  28.8           0.001          146.98468     -2210.2152      9.7086222      2435.3587      10246.592    
ec    28900  28.9           0.001          152.95934     -2210.6101      10.103261      2484.3056      10246.592    
ec    29000  29             0.001          162.3643      -2211.2325      10.724476      2506.9103      10246.592    
ec    29100  29.1           0.001          143.12524     -2209.9598      9.4536988      2520.9509      10246.592    
ec    29200  29.2           0.001          152.45339     -2210.5779      10.069841      2313.6278      10246.592    
ec    29300  29.3           0.001          160.66202     -2211.1203      10.612037      2411.0183      10246.592    
ec    29400  29.4           0.001          142.26065     -2209.9038      9.3965911      2267.0378      10246.592    
ec    29500  29.5           0.001          152.52696     -2210.5826      10.074701      2330.9879      10246.592    
ec    29600  29.6           0.001          148.83776     -2210.3372      9.8310218      2485.0712      10246.592    
ec    29700  29.7           0.001          138.42043     -2209.6489      9.1429369      2376.8068      10246.592    
ec    29800  29.8           0.001          155.16966     -2210.7568      10.249256      2412.4718      10246.592    
ec    29900  29.9           0.001          142.82962     -2209.9408      9.4341724      2400.6838      10246.592    
Fix halt condition for fix-id myhalt met on step 30000 with value 30 (../fix_halt.cpp:240)
ec    30000  30             0.001          141.35522     -2209.8441      9.3367856      2303.0192      10246.592    
Loop time of 5.98137 on 2 procs for 30000 steps with 512 atoms

Performance: 433.346 ns/day, 0.055 hours/ns, 5015.575 timesteps/s, 2.568 Matom-step/s
97.5% CPU use with 2 MPI tasks x no OpenMP threads

MPI task timing breakdown:
Section |  min time  |  avg time  |  max time  |%varavg| %total
---------------------------------------------------------------
Pair    | 5.3354     | 5.3431     | 5.3508     |   0.3 | 89.33
Neigh   | 0          | 0          | 0          |   0.0 |  0.00
Comm    | 0.51637    | 0.52523    | 0.5341     |   1.2 |  8.78
Output  | 0.0026568  | 0.0045151  | 0.0063734  |   2.8 |  0.08
Modify  | 0.048858   | 0.049759   | 0.050661   |   0.4 |  0.83
Other   |            | 0.05874    |            |       |  0.98

Nlocal:            256 ave         256 max         256 min
Histogram: 2 0 0 0 0 0 0 0 0 0
Nghost:           1081 ave        1081 max        1081 min
Histogram: 2 0 0 0 0 0 0 0 0 0
Neighs:              0 ave           0 max           0 min
Histogram: 2 0 0 0 0 0 0 0 0 0
FullNghs:         8704 ave        8704 max        8704 min
Histogram: 2 0 0 0 0 0 0 0 0 0

Total # of neighbors = 17408
Ave neighs/atom = 34
Neighbor list builds = 0
Dangerous builds = 0

unfix myhalt

fix NPT all npt temp 300 300 ${tau_T} iso 0.0 0.0 1.0
fix NPT all npt temp 300 300 0.01 iso 0.0 0.0 1.0



fix myhalt all halt 100 v_t >= 60.0 error continue

run 10000000
WARNING: One or more atoms are time integrated more than once (../modify.cpp:296)
Per MPI rank memory allocation (min/avg/max) = 3.237 | 3.237 | 3.237 Mbytes
   Step          Time            Dt            Temp          PotEng         KinEng         Press          Volume    
ec    30000  30             0.001          141.35522     -2209.8441      9.3367856      2303.0192      10246.592    
ec    30100  30.1           0.001          295.26035     -2200.4334      19.502517     -3934.6833      10333.823    
ec    30200  30.2           0.001          312.17098     -2200.2777      20.619497      2510.5614      10273.517    
ec    30300  30.3           0.001          322.17247     -2199.7909      21.280115      273.49589      10299.013    
ec    30400  30.4           0.001          326.96526     -2200.0014      21.596688     -2644.0685      10329.524    
ec    30500  30.5           0.001          309.03387     -2199.0021      20.412285      3591.9389      10267.829    
ec    30600  30.6           0.001          316.83153     -2199.2216      20.927335     -3063.5344      10337.347    
ec    30700  30.7           0.001          317.7892      -2199.6315      20.990591      1108.2331      10294.786    
ec    30800  30.8           0.001          340.64653     -2200.7074      22.500362      995.80593      10296.485    
ec    30900  30.9           0.001          315.30277     -2199.1412      20.826358     -2628.8384      10334.548    
ec    31000  31             0.001          320.24696     -2199.4767      21.152931      2872.4968      10278.371    
ec    31100  31.1           0.001          316.1193      -2199.099       20.880291     -1852.601       10327.232    
ec    31200  31.2           0.001          313.02219     -2199.0057      20.675721      126.01967      10306.557    
ec    31300  31.3           0.001          314.54004     -2199.0053      20.775978      1415.2527      10293.976    
ec    31400  31.4           0.001          319.28619     -2199.3618      21.08947      -2168.2394      10330.367    
ec    31500  31.5           0.001          323.37982     -2199.5496      21.359862      1874.8647      10288.945    
ec    31600  31.6           0.001          324.32521     -2199.4751      21.422307     -884.3472       10317.212    
ec    31700  31.7           0.001          335.83843     -2200.2846      22.182778     -410.76888      10311.974    
ec    31800  31.8           0.001          319.61585     -2199.4096      21.111245      1201.1529      10295.725    
ec    31900  31.9           0.001          348.03893     -2200.859       22.988645     -1524.235       10323.187    
ec    32000  32             0.001          323.49452     -2199.6194      21.367439      1033.1786      10297.166    
ec    32100  32.1           0.001          305.03376     -2198.3623      20.14807      -275.20382      10311.38     
ec    32200  32.2           0.001          308.75008     -2198.7421      20.39354      -464.50382      10312.859    
ec    32300  32.3           0.001          321.79707     -2199.5285      21.255319      843.34854      10299.059    
ec    32400  32.4           0.001          310.13445     -2198.6575      20.484981     -838.57793      10316.797    
ec    32500  32.5           0.001          315.12832     -2199.0438      20.814835      457.9103       10303.238    
ec    32600  32.6           0.001          325.36997     -2199.4901      21.491316      33.244929      10307.486    
ec    32700  32.7           0.001          312.41837     -2198.7413      20.635838     -488.79508      10312.971    
ec    32800  32.8           0.001          331.91712     -2199.9146      21.923768      628.59194      10301.145    
ec    32900  32.9           0.001          318.73133     -2199.0637      21.052821     -542.5266       10313.418    
ec    33000  33             0.001          324.86074     -2199.5448      21.457681      159.73439      10305.847    
ec    33100  33.1           0.001          318.97513     -2199.1419      21.068924      221.906        10305.515    
ec    33200  33.2           0.001          320.70164     -2199.3101      21.182963     -566.28863      10313.197    
ec    33300  33.3           0.001          311.82779     -2198.7808      20.596828      588.49532      10301.68     
ec    33400  33.4           0.001          305.5387      -2198.3906      20.181422     -369.89639      10311.616    
ec    33500  33.5           0.001          304.14972     -2198.3127      20.089678      29.491628      10307.476    
ec    33600  33.6           0.001          316.7901      -2199.0318      20.924599      338.60403      10303.84     
ec    33700  33.7           0.001          304.45811     -2198.0905      20.110047     -528.90843      10313.473    
ec    33800  33.8           0.001          307.79947     -2198.4926      20.33075       551.61232      10301.895    
ec    33900  33.9           0.001          319.8883      -2199.081       21.129241     -259.02272      10310.113    
ec    34000  34             0.001          327.94855     -2199.5935      21.661636     -170.70484      10308.844    
ec    34100  34.1           0.001          323.64629     -2199.3483      21.377463      480.75922      10302.376    
ec    34200  34.2           0.001          322.12828     -2199.3665      21.277196     -634.36701      10313.588    
ec    34300  34.3           0.001          330.29832     -2199.9311      21.816843      385.28058      10302.592    
ec    34400  34.4           0.001          322.23702     -2199.4839      21.284379     -123.39372      10308.066    
ec    34500  34.5           0.001          315.64781     -2199.0576      20.849148     -375.74341      10310.628    
ec    34600  34.6           0.001          310.53656     -2198.719       20.51154       616.6095       10300.812    
ec    34700  34.7           0.001          313.9731      -2198.9031      20.73853      -645.38469      10313.417    
ec    34800  34.8           0.001          309.37452     -2198.4963      20.434785      342.87693      10303.677    
ec    34900  34.9           0.001          307.76349     -2198.328       20.328374      143.3337       10305.788    
ec    35000  35             0.001          319.4297      -2199.099       21.098949     -556.24503      10312.565    
ec    35100  35.1           0.001          319.42471     -2198.9905      21.09862       726.24378      10299.458    
ec    35200  35.2           0.001          312.47649     -2198.6691      20.639677     -585.4877       10312.954    
ec    35300  35.3           0.001          314.48315     -2198.8478      20.77222       163.73723      10305.204    
ec    35400  35.4           0.001          322.6008      -2199.3014      21.308407      330.63265      10303.137    
ec    35500  35.5           0.001          324.83277     -2199.3816      21.455833     -768.9657       10314.528    
ec    35600  35.6           0.001          322.09136     -2199.2471      21.274757      789.91704      10298.41     
ec    35700  35.7           0.001          324.06159     -2199.3194      21.404895     -520.55428      10311.901    
ec    35800  35.8           0.001          322.91294     -2199.2593      21.329024     -82.869353      10307.47     
ec    35900  35.9           0.001          325.48017     -2199.4111      21.498595      625.50351      10300.02     
ec    36000  36             0.001          319.38074     -2199.005       21.095716     -967.35233      10316.639    
ec    36100  36.1           0.001          319.75963     -2199.1164      21.120742      836.39454      10297.888    
ec    36200  36.2           0.001          326.75077     -2199.4819      21.58252      -357.30399      10310.013    
ec    36300  36.3           0.001          316.98466     -2198.9138      20.93745      -402.84841      10310.654    
ec    36400  36.4           0.001          326.69342     -2199.4997      21.578733      972.82546      10296.354    
ec    36500  36.5           0.001          321.15107     -2199.1354      21.21265      -1199.2607      10318.645    
ec    36600  36.6           0.001          320.82754     -2199.2325      21.191279      802.85479      10298.134    
ec    36700  36.7           0.001          324.53422     -2199.3978      21.436113     -83.865962      10306.946    
ec    36800  36.8           0.001          311.68583     -2198.6503      20.587452     -830.10117      10314.906    
ec    36900  36.9           0.001          314.47728     -2198.7963      20.771833      1367.6743      10292.382    
ec    37000  37             0.001          308.66177     -2198.4034      20.387707     -1323.9066      10320.005    
ec    37100  37.1           0.001          308.12662     -2198.3196      20.352359      659.36671      10299.861    
ec    37200  37.2           0.001          303.4544      -2197.9832      20.04375       424.15358      10302.3      
ec    37300  37.3           0.001          313.12016     -2198.6183      20.682192     -1323.5314      10320.032    
ec    37400  37.4           0.001          311.13942     -2198.4345      20.55136       1735.3293      10288.803    
ec    37500  37.5           0.001          326.11058     -2199.3589      21.540235     -1321.5116      10319.799    
ec    37600  37.6           0.001          314.51025     -2198.7886      20.77401       248.93599      10303.687    
ec    37700  37.7           0.001          318.29811     -2199.0176      21.024206      972.07287      10296.266    
ec    37800  37.8           0.001          320.21512     -2199.1597      21.150828     -1885.7675      10325.302    
ec    37900  37.9           0.001          309.20063     -2198.3995      20.423299      1912.0106      10286.817    
ec    38000  38             0.001          307.3613      -2198.2407      20.301809     -1038.6211      10317.24     
ec    38100  38.1           0.001          322.22322     -2199.3008      21.283467     -364.24039      10309.505    
ec    38200  38.2           0.001          311.608       -2198.5475      20.582311      1642.3708      10289.697    
ec    38300  38.3           0.001          319.20585     -2199.1212      21.084164     -2272.4458      10329.198    
ec    38400  38.4           0.001          312.55098     -2198.728       20.644597      1825.4476      10287.417    
ec    38500  38.5           0.001          304.98142     -2198.164       20.144613     -544.95286      10312.131    
ec    38600  38.6           0.001          313.73397     -2198.835       20.722736     -1051.3411      10316.573    
ec    38700  38.7           0.001          316.64366     -2198.8634      20.914926      2205.1375      10283.774    
ec    38800  38.8           0.001          310.38157     -2198.4182      20.501303     -2392.029       10330.827    
ec    38900  38.9           0.001          321.99275     -2199.2956      21.268244      1474.3167      10290.733    
ec    39000  39             0.001          312.68429     -2198.4934      20.653402      126.24072      10305.127    
ec    39100  39.1           0.001          309.99877     -2198.6343      20.476019     -1751.5011      10323.949    
ec    39200  39.2           0.001          327.20716     -2199.5193      21.612666      2581.7206      10279.535    
ec    39300  39.3           0.001          313.37454     -2198.7123      20.698994     -2320.8733      10329.84     
ec    39400  39.4           0.001          322.09475     -2199.3365      21.274981      900.19418      10296.54     
ec    39500  39.5           0.001          326.68043     -2199.494       21.577874      851.91543      10296.945    
ec    39600  39.6           0.001          315.17213     -2198.7874      20.817728     -2370.2523      10330.48     
ec    39700  39.7           0.001          320.64075     -2199.1869      21.178942      2771.3616      10277.502    
ec    39800  39.8           0.001          322.80194     -2199.1443      21.321693     -1966.4714      10326.083    
ec    39900  39.9           0.001          307.22971     -2198.2826      20.293116      197.89374      10304.292    
ec    40000  40             0.001          332.00922     -2199.7836      21.929851      1654.8217      10288.68     
ec    40100  40.1           0.001          313.74706     -2198.5049      20.7236       -2817.3699      10335.318    
ec    40200  40.2           0.001          319.77581     -2199.1242      21.121811      2699.5329      10278.418    
ec    40300  40.3           0.001          330.31749     -2199.581       21.818109     -1356.2531      10319.675    
ec    40400  40.4           0.001          319.80774     -2199.1092      21.12392      -727.10838      10313.157    
ec    40500  40.5           0.001          317.54708     -2198.9038      20.974599      2440.7317      10281.335    
ec    40600  40.6           0.001          324.37215     -2199.2909      21.425408     -3123.6385      10337.599    
ec    40700  40.7           0.001          306.42312     -2198.2691      20.239839      2377.9623      10282.263    
ec    40800  40.8           0.001          319.04744     -2198.9867      21.073701     -552.35815      10311.329    
ec    40900  40.9           0.001          315.10238     -2198.8005      20.813122     -1593.0037      10322.143    
ec    41000  41             0.001          311.66639     -2198.4738      20.586168      3009.9407      10275.727    
ec    41100  41.1           0.001          318.84742     -2198.8916      21.060489     -3054.4512      10337.153    
ec    41200  41.2           0.001          329.58035     -2199.66        21.76942       1701.3669      10288.528    
ec    41300  41.3           0.001          311.60343     -2198.4318      20.582009      418.52268      10301.744    
ec    41400  41.4           0.001          332.55012     -2199.9513      21.965579     -2491.3495      10330.998    
ec    41500  41.5           0.001          318.91618     -2198.9248      21.06503       3414.5205      10271.167    
ec    41600  41.6           0.001          315.37976     -2198.7677      20.831443     -2852.9353      10335.415    
ec    41700  41.7           0.001          331.52036     -2199.8625      21.897561      874.94341      10296.34     
ec    41800  41.8           0.001          309.09588     -2198.2929      20.416381      1603.2382      10289.853    
ec    41900  41.9           0.001          324.63955     -2199.2847      21.44307      -3634.8799      10343.178    
ec    42000  42             0.001          323.10822     -2199.2063      21.341923      4139.049       10263.556    
ec    42100  42.1           0.001          322.64919     -2198.9968      21.311603     -2720.1015      10334.258    
ec    42200  42.2           0.001          314.29834     -2198.805       20.760014     -185.86938      10307.606    
ec    42300  42.3           0.001          331.83904     -2199.6448      21.91861       3271.9083      10272.331    
ec    42400  42.4           0.001          300.21532     -2197.6255      19.829803     -5064.5667      10358.952    
ec    42500  42.5           0.001          325.36513     -2199.4897      21.490996      4643.0748      10258.196    
ec    42600  42.6           0.001          313.51133     -2198.3751      20.708029     -1914.6219      10326.23     
ec    42700  42.7           0.001          308.09789     -2198.4559      20.350462     -1773.434       10323.938    
ec    42800  42.8           0.001          326.4263      -2199.3252      21.561089      4659.4092      10258.546    
ec    42900  42.9           0.001          319.90051     -2198.8503      21.130048     -5339.3413      10360.9      
ec    43000  43             0.001          312.44859     -2198.6601      20.637833      3630.3235      10269.279    
ec    43100  43.1           0.001          332.98269     -2199.7523      21.994151     -447.27151      10309.992    
ec    43200  43.2           0.001          310.42183     -2198.4978      20.503962     -2664.1349      10333.349    
ec    43300  43.3           0.001          315.24915     -2198.712       20.822816      4210.3648      10263.243    
ec    43400  43.4           0.001          324.58196     -2199.2444      21.439266     -3721.7987      10343.8      
ec    43500  43.5           0.001          313.16105     -2198.6275      20.684893      1730.7318      10288.655    
ec    43600  43.6           0.001          319.41434     -2198.9538      21.097935      681.50249      10298.773    
ec    43700  43.7           0.001          330.8402      -2199.7134      21.852635     -2459.4101      10330.752    
ec    43800  43.8           0.001          316.90835     -2198.7829      20.932409      2847.1308      10276.937    
ec    43900  43.9           0.001          326.35852     -2199.4299      21.556611     -2025.2888      10326.46     
ec    44000  44             0.001          327.22775     -2199.5221      21.614026      403.2759       10301.396    
ec    44100  44.1           0.001          309.36376     -2198.3228      20.434074      1113.682       10294.873    
ec    44200  44.2           0.001          327.34316     -2199.4765      21.621649     -1991.2987      10325.938    
ec    44300  44.3           0.001          323.4592      -2199.2118      21.365106      1860.6978      10286.629    
ec    44400  44.4           0.001          318.10035     -2198.8156      21.011143     -992.98785      10316.414    
ec    44500  44.5           0.001          327.05901     -2199.4986      21.60288      -246.1692       10307.934    
ec    44600  44.6           0.001          323.73433     -2199.1647      21.383279      1220.1349      10293.442    
ec    44700  44.7           0.001          317.73873     -2198.821       20.987258     -1635.2063      10322.676    
ec    44800  44.8           0.001          327.11472     -2199.5412      21.60656       1258.9685      10292.524    
ec    44900  44.9           0.001          313.92013     -2198.5249      20.735032     -398.45828      10310.324    
ec    45000  45             0.001          307.24863     -2198.2494      20.294366     -574.31205      10311.965    
ec    45100  45.1           0.001          327.41594     -2199.3961      21.626456      1275.9204      10292.601    
ec    45200  45.2           0.001          310.58564     -2198.3403      20.514782     -1394.5726      10320.342    
ec    45300  45.3           0.001          318.31025     -2198.9604      21.025008      890.09723      10296.817    
ec    45400  45.4           0.001          319.87284     -2198.9203      21.12822       3.9278675      10305.761    
ec    45500  45.5           0.001          310.30733     -2198.426       20.496399     -870.37128      10315.077    
ec    45600  45.6           0.001          318.66818     -2198.9654      21.04865       1348.5588      10291.933    
ec    45700  45.7           0.001          315.8456      -2198.7766      20.862213     -1242.8571      10318.412    
ec    45800  45.8           0.001          301.62267     -2197.897       19.922761      576.68563      10300.576    
ec    45900  45.9           0.001          312.97026     -2198.6014      20.672291      414.16938      10301.558    
ec    46000  46             0.001          318.65538     -2198.9237      21.047804     -1200.4596      10318.192    
ec    46100  46.1           0.001          306.71062     -2198.232       20.258829      1465.0807      10291.005    
ec    46200  46.2           0.001          320.66346     -2199.127       21.180442     -1080.3953      10316.704    
ec    46300  46.3           0.001          314.17063     -2198.6712      20.751578      138.2808       10304.513    
ec    46400  46.4           0.001          310.09452     -2198.458       20.482343      948.67794      10296.383    
ec    46500  46.5           0.001          326.53153     -2199.4756      21.568039     -1728.1493      10323.125    
ec    46600  46.6           0.001          311.06114     -2198.5115      20.54619       1729.0703      10288.182    
ec    46700  46.7           0.001          317.64597     -2198.8764      20.981131     -937.35297      10315.619    
ec    46800  46.8           0.001          324.07352     -2199.3534      21.405683     -527.50988      10310.795    
ec    46900  46.9           0.001          318.74559     -2198.9341      21.053763      2021.1537      10285.411    
ec    47000  47             0.001          316.11976     -2198.7951      20.880322     -2905.0837      10335.554    
ec    47100  47.1           0.001          325.5793      -2199.5028      21.505142      2442.8284      10280.388    
ec    47200  47.2           0.001          311.72506     -2198.3784      20.590043     -645.74499      10313.05     
ec    47300  47.3           0.001          315.55246     -2198.8845      20.842851     -1897.2301      10324.989    
ec    47400  47.4           0.001          327.68037     -2199.4143      21.643922      3921.6435      10265.911    
ec    47500  47.5           0.001          310.22944     -2198.2683      20.491255     -4271.6077      10350.034    
ec    47600  47.6           0.001          327.23928     -2199.6233      21.614787      2580.8057      10279.143    
ec    47700  47.7           0.001          324.26595     -2199.1195      21.418393      412.90169      10301.698    
ec    47800  47.8           0.001          312.07598     -2198.5916      20.613222     -3355.2968      10340.428    
ec    47900  47.9           0.001          329.01253     -2199.5678      21.731914      4766.7684      10257.114    
ec    48000  48             0.001          317.34465     -2198.7206      20.961228     -3994.8236      10346.916    
ec    48100  48.1           0.001          312.40563     -2198.6874      20.634996      1437.2368      10291.405    
ec    48200  48.2           0.001          324.37092     -2199.2199      21.425326      1649.3675      10288.758    
ec    48300  48.3           0.001          316.33692     -2198.7643      20.894666     -3844.6055      10345.536    
ec    48400  48.4           0.001          314.78406     -2198.7078      20.792096      4200.1631      10263.125    
ec    48500  48.5           0.001          325.71883     -2199.3104      21.514358     -2676.4611      10333.044    
ec    48600  48.6           0.001          313.90633     -2198.6845      20.73412       80.070088      10305.248    
ec    48700  48.7           0.001          314.86068     -2198.6802      20.797157      2318.99        10282.254    
ec    48800  48.8           0.001          329.22499     -2199.5479      21.745947     -3496.5707      10341.473    
ec    48900  48.9           0.001          311.1517      -2198.4753      20.552172      3016.0789      10275.184    
ec    49000  49             0.001          324.87935     -2199.3001      21.45891      -1293.9447      10319.053    
ec    49100  49.1           0.001          324.6466      -2199.3536      21.443536     -868.72373      10314.401    
ec    49200  49.2           0.001          313.55019     -2198.6087      20.710596      2403.109       10281.592    
ec    49300  49.3           0.001          324.31992     -2199.2815      21.421958     -2775.9302      10334.066    
ec    49400  49.4           0.001          321.3736      -2199.1892      21.227348      1851.616       10286.528    
ec    49500  49.5           0.001          312.77474     -2198.4994      20.659377     -247.3394       10308.927    
ec    49600  49.6           0.001          319.8358      -2199.0994      21.125773     -1337.2736      10319.121    
ec    49700  49.7           0.001          322.56001     -2199.1342      21.305712      2185.0479      10283.563    
ec    49800  49.8           0.001          311.66067     -2198.4302      20.58579      -2040.8946      10326.937    
ec    49900  49.9           0.001          326.97793     -2199.5637      21.597525      986.93054      10295.262    
ec    50000  50             0.001          318.20487     -2198.7809      21.018047      385.27732      10302.238    
ec    50100  50.1           0.001          311.94128     -2198.5655      20.604325     -1505.1092      10321.272    
ec    50200  50.2           0.001          331.97256     -2199.7753      21.92743       1873.6416      10286.291    
ec    50300  50.3           0.001          314.16479     -2198.5882      20.751192     -1464.6665      10320.875    
ec    50400  50.4           0.001          316.25815     -2198.8956      20.889462      397.73211      10301.877    
ec    50500  50.5           0.001          324.57731     -2199.261       21.438959      767.96156      10297.733    
ec    50600  50.6           0.001          311.47439     -2198.4967      20.573486     -1562.9625      10322.041    
ec    50700  50.7           0.001          319.0181      -2199.0082      21.071763      1608.7698      10289.264    
ec    50800  50.8           0.001          321.443       -2199.1006      21.231932     -984.90346      10315.611    
ec    50900  50.9           0.001          310.80745     -2198.4557      20.529433     -79.68664       10307.126    
ec    51000  51             0.001          317.91225     -2198.9089      20.998719      1078.9918      10294.602    
ec    51100  51.1           0.001          325.66068     -2199.3625      21.510518     -1589.1225      10321.881    
ec    51200  51.2           0.001          310.23259     -2198.4165      20.491463      1323.9976      10292.465    
ec    51300  51.3           0.001          322.91785     -2199.2402      21.329349     -507.01437      10310.809    
ec    51400  51.4           0.001          321.36582     -2199.0808      21.226834     -553.79636      10311.507    
ec    51500  51.5           0.001          310.72398     -2198.4579      20.52392       1330.8245      10292.367    
ec    51600  51.6           0.001          329.3097      -2199.6124      21.751542     -1537.7549      10321.194    
ec    51700  51.7           0.001          316.55552     -2198.8244      20.909105      976.75915      10295.697    
ec    51800  51.8           0.001          315.22056     -2198.7275      20.820927     -7.2022835      10306.243    
ec    51900  51.9           0.001          323.91368     -2199.3017      21.395125     -1015.8262      10315.832    
ec    52000  52             0.001          316.41975     -2198.809       20.900136      1578.5844      10289.727    
ec    52100  52.1           0.001          315.22108     -2198.7062      20.820962     -1488.4868      10321.171    
ec    52200  52.2           0.001          321.98288     -2199.2376      21.267592      654.80744      10298.698    
ec    52300  52.3           0.001          314.43299     -2198.5831      20.768907      540.56405      10300.831    
ec    52400  52.4           0.001          314.30021     -2198.7123      20.760137     -1606.8483      10322.117    
ec    52500  52.5           0.001          328.58448     -2199.5816      21.70364       2012.9188      10284.931    
ec    52600  52.6           0.001          311.0664      -2198.3757      20.546537     -1562.8638      10322.117    
ec    52700  52.7           0.001          319.18439     -2199.1062      21.082746      260.54254      10302.971    
ec    52800  52.8           0.001          324.99032     -2199.2442      21.466239      1338.3169      10292.151    
ec    52900  52.9           0.001          310.1675      -2198.4131      20.487163     -2549.9013      10332.068    
ec    53000  53             0.001          326.83735     -2199.518       21.588239      2663.0961      10278.376    
ec    53100  53.1           0.001          319.39591     -2198.8881      21.096718     -1542.1849      10321.557    
ec    53200  53.2           0.001          312.58894     -2198.6611      20.647104     -523.59395      10311.458    
ec    53300  53.3           0.001          324.91088     -2199.2959      21.460992      2587.0171      10279.17     
ec    53400  53.4           0.001          318.00847     -2198.8493      21.005075     -3665.3203      10343.449    
ec    53500  53.5           0.001          313.58402     -2198.6769      20.712831      3072.3879      10274.703    
ec    53600  53.6           0.001          322.72979     -2199.1351      21.316927     -950.554        10315.338    
ec    53700  53.7           0.001          316.56821     -2198.8254      20.909942     -1812.1613      10324.617    
ec    53800  53.8           0.001          314.36162     -2198.6291      20.764193      3896.9857      10266.199    
ec    53900  53.9           0.001          328.76338     -2199.4819      21.715457     -4248.7905      10349.263    
ec    54000  54             0.001          313.1108      -2198.6325      20.681574      2615.0593      10279.288    
ec    54100  54.1           0.001          318.12954     -2198.8598      21.013072      266.06744      10303.245    
ec    54200  54.2           0.001          325.9422      -2199.399       21.529113     -3065.167       10337.012    
ec    54300  54.3           0.001          312.2919      -2198.5064      20.627484      4423.5193      10260.982    
ec    54400  54.4           0.001          323.02368     -2199.1296      21.336339     -3735.6645      10344.248    
ec    54500  54.5           0.001          320.46526     -2199.1614      21.16735       1371.7351      10291.438    
ec    54600  54.6           0.001          313.09145     -2198.5076      20.680296      1473.5508      10291.327    
ec    54700  54.7           0.001          320.308       -2199.0672      21.156963     -3488.9089      10341.358    
ec    54800  54.8           0.001          321.63876     -2199.15        21.244862      3793.1945      10266.989    
ec    54900  54.9           0.001          311.14504     -2198.35        20.551732     -2410.3404      10331.059    
ec    55000  55             0.001          319.48525     -2199.1452      21.102618      113.79014      10304.241    
ec    55100  55.1           0.001          321.78785     -2199.0214      21.25471       1969.6739      10285.972    
ec    55200  55.2           0.001          310.25533     -2198.3999      20.492965     -2962.9679      10336.284    
ec    55300  55.3           0.001          329.29538     -2199.6892      21.750597      2533.3493      10279.543    
ec    55400  55.4           0.001          316.18869     -2198.6546      20.884875     -1117.62        10317.533    
ec    55500  55.5           0.001          313.4473      -2198.7321      20.703801     -589.39393      10311.885    
ec    55600  55.6           0.001          329.6205      -2199.5884      21.772071      1776.5205      10287.365    
ec    55700  55.7           0.001          313.4982      -2198.5927      20.707163     -2094.1659      10327.269    
ec    55800  55.8           0.001          319.21457     -2199.0555      21.08474       1440.1628      10291.149    
ec    55900  55.9           0.001          323.33278     -2199.1946      21.356756     -307.44746      10308.701    
ec    56000  56             0.001          313.17061     -2198.6249      20.685525     -820.99168      10314.499    
ec    56100  56.1           0.001          318.86107     -2198.9717      21.061391      1429.3629      10291.02     
ec    56200  56.2           0.001          324.1059      -2199.2852      21.407822     -1407.3454      10319.876    
ec    56300  56.3           0.001          311.20371     -2198.4646      20.555607      747.82871      10298.608    
ec    56400  56.4           0.001          318.81384     -2198.9702      21.05827       154.55782      10304.06     
ec    56500  56.5           0.001          325.61115     -2199.352       21.507246     -916.24911      10315.06     
ec    56600  56.6           0.001          311.30328     -2198.4736      20.562184      1165.1645      10293.965    
ec    56700  56.7           0.001          326.3263      -2199.4578      21.554483     -936.68415      10315.132    
ec    56800  56.8           0.001          319.65051     -2198.9806      21.113534      265.05346      10303.096    
ec    56900  56.9           0.001          311.60849     -2198.5158      20.582344      458.00413      10301.377    
ec    57000  57             0.001          327.80761     -2199.5305      21.652327     -963.48829      10315.265    
ec    57100  57.1           0.001          316.40989     -2198.8117      20.899485      949.57559      10295.956    
ec    57200  57.2           0.001          315.0051      -2198.7132      20.806696     -563.43879      10311.912    
ec    57300  57.3           0.001          322.37035     -2199.2188      21.293185     -82.132903      10306.279    
ec    57400  57.4           0.001          316.57006     -2198.7864      20.910065      652.85304      10299.332    
ec    57500  57.5           0.001          314.52924     -2198.6954      20.775264     -955.19002      10315.542    
ec    57600  57.6           0.001          324.3968      -2199.3653      21.427036      778.35547      10297.436    
ec    57700  57.7           0.001          312.9265      -2198.4972      20.6694       -287.96545      10309.258    
ec    57800  57.8           0.001          314.60997     -2198.7563      20.780597     -339.95822      10309.162    
ec    57900  57.9           0.001          329.46298     -2199.5964      21.761667      814.47797      10297.192    
ec    58000  58             0.001          310.95068     -2198.4265      20.538894     -1007.5545      10316.231    
ec    58100  58.1           0.001          322.12801     -2199.2538      21.277178      701.02852      10298.502    
ec    58200  58.2           0.001          322.76374     -2199.1316      21.319169     -70.869113      10306.477    
ec    58300  58.3           0.001          310.69894     -2198.4901      20.522266     -731.86749      10313.453    
ec    58400  58.4           0.001          325.52843     -2199.3999      21.501782      1335.3727      10291.863    
ec    58500  58.5           0.001          318.82138     -2198.9248      21.058769     -1522.3843      10321.216    
ec    58600  58.6           0.001          312.51562     -2198.6075      20.642261      889.15229      10297.127    
ec    58700  58.7           0.001          322.53361     -2199.1637      21.303969      520.10439      10300.216    
ec    58800  58.8           0.001          319.74482     -2199.0154      21.119764     -2208.7642      10328.393    
ec    58900  58.9           0.001          312.82187     -2198.575       20.662489      3148.2546      10273.891    
ec    59000  59             0.001          323.90926     -2199.2314      21.394833     -2639.0262      10332.654    
ec    59100  59.1           0.001          316.39558     -2198.8283      20.89854       671.80611      10299.155    
ec    59200  59.2           0.001          313.90901     -2198.5978      20.734297      1872.6617      10286.79     
ec    59300  59.3           0.001          329.45665     -2199.5953      21.761249     -3766.8603      10344.167    
ec    59400  59.4           0.001          313.9728      -2198.628       20.738511      3962.2293      10265.595    
ec    59500  59.5           0.001          318.79399     -2198.8919      21.05696      -2297.1521      10329.599    
ec    59600  59.6           0.001          324.61243     -2199.4014      21.441279     -506.61558      10310.588    
ec    59700  59.7           0.001          313.01315     -2198.5206      20.675124      3087.8161      10274.614    
ec    59800  59.8           0.001          320.56359     -2199.0148      21.173845     -4273.6584      10349.738    
ec    59900  59.9           0.001          321.35819     -2199.1758      21.22633       3497.889       10269.871    
Fix halt condition for fix-id myhalt met on step 60000 with value 60 (../fix_halt.cpp:240)
ec    60000  60             0.001          312.89865     -2198.4513      20.667561     -1142.8641      10318.169    
Loop time of 4.31738 on 2 procs for 30000 steps with 512 atoms

Performance: 600.364 ns/day, 0.040 hours/ns, 6948.659 timesteps/s, 3.558 Matom-step/s
96.0% CPU use with 2 MPI tasks x no OpenMP threads

MPI task timing breakdown:
Section |  min time  |  avg time  |  max time  |%varavg| %total
---------------------------------------------------------------
Pair    | 3.5326     | 3.5713     | 3.6101     |   2.1 | 82.72
Neigh   | 0          | 0          | 0          |   0.0 |  0.00
Comm    | 0.36785    | 0.40698    | 0.44611    |   6.1 |  9.43
Output  | 0.0023195  | 0.0039668  | 0.0056141  |   2.6 |  0.09
Modify  | 0.28004    | 0.28281    | 0.28558    |   0.5 |  6.55
Other   |            | 0.05228    |            |       |  1.21

Nlocal:            256 ave         258 max         254 min
Histogram: 1 0 0 0 0 0 0 0 0 1
Nghost:           1081 ave        1083 max        1079 min
Histogram: 1 0 0 0 0 0 0 0 0 1
Neighs:              0 ave           0 max           0 min
Histogram: 2 0 0 0 0 0 0 0 0 0
FullNghs:         8726 ave        8791 max        8661 min
Histogram: 1 0 0 0 0 0 0 0 0 1

Total # of neighbors = 17452
Ave neighs/atom = 34.085938
Neighbor list builds = 0
Dangerous builds = 0

unfix myhalt

fix myhalt all halt 100 v_t >= 90.0 error continue

unfix NPT

fix NVT all nvt temp 300 300 ${tau_T}
fix NVT all nvt temp 300 300 0.01

run 10000000
WARNING: One or more atoms are time integrated more than once (../modify.cpp:296)
Per MPI rank memory allocation (min/avg/max) = 3.237 | 3.237 | 3.237 Mbytes
   Step          Time            Dt            Temp          PotEng         KinEng         Press          Volume    
ec    60000  60             0.001          312.89865     -2198.4513      20.667561     -1142.8641      10318.169    
ec    60100  60.1           0.001          321.81319     -2199.3688      21.256383     -1269.1202      10318.169    
ec    60200  60.2           0.001          321.96828     -2199.1226      21.266628     -1219.1366      10318.169    
ec    60300  60.3           0.001          310.59571     -2198.3889      20.515447     -1182.5608      10318.169    
ec    60400  60.4           0.001          323.5932      -2199.2731      21.373957     -1235.4192      10318.169    
ec    60500  60.5           0.001          317.5344      -2198.7656      20.973761     -1171.9415      10318.169    
ec    60600  60.6           0.001          312.31437     -2198.543       20.628968     -1203.3075      10318.169    
ec    60700  60.7           0.001          330.53747     -2199.6537      21.832639     -1242.4074      10318.169    
ec    60800  60.8           0.001          313.04337     -2198.5218      20.67712      -1196.1311      10318.169    
ec    60900  60.9           0.001          320.01629     -2199.0517      21.137695     -1200.7682      10318.169    
ec    61000  61             0.001          324.32694     -2199.2298      21.422422     -1221.0369      10318.169    
ec    61100  61.1           0.001          311.637       -2198.4854      20.584227     -1184.9528      10318.169    
ec    61200  61.2           0.001          324.01917     -2199.2685      21.402093     -1230.3725      10318.169    
ec    61300  61.3           0.001          319.72187     -2198.9808      21.118248     -1227.959       10318.169    
ec    61400  61.4           0.001          312.45223     -2198.5125      20.638074     -1156.4118      10318.169    
ec    61500  61.5           0.001          321.59971     -2199.1178      21.242283     -1234.5354      10318.169    
ec    61600  61.6           0.001          319.63869     -2198.9496      21.112754     -1198.4284      10318.169    
ec    61700  61.7           0.001          313.0463      -2198.5591      20.677314     -1200.0322      10318.169    
ec    61800  61.8           0.001          325.2077      -2199.3661      21.480597     -1241.4116      10318.169    
ec    61900  61.9           0.001          313.89305     -2198.5405      20.733243     -1161.6789      10318.169    
ec    62000  62             0.001          314.33742     -2198.6801      20.762595     -1206.7812      10318.169    
ec    62100  62.1           0.001          329.17952     -2199.5426      21.742944     -1231.6401      10318.169    
ec    62200  62.2           0.001          311.28143     -2198.4249      20.56074      -1196.6149      10318.169    
ec    62300  62.3           0.001          323.71225     -2199.2829      21.38182      -1217.2104      10318.169    
ec    62400  62.4           0.001          321.5326      -2199.0447      21.23785      -1210.4635      10318.169    
ec    62500  62.5           0.001          311.40768     -2198.4815      20.56908      -1177.157       10318.169    
ec    62600  62.6           0.001          325.98592     -2199.3833      21.532001     -1238.9373      10318.169    
ec    62700  62.7           0.001          317.40534     -2198.8354      20.965237     -1220.8094      10318.169    
ec    62800  62.8           0.001          314.02105     -2198.6258      20.741698     -1169.6035      10318.169    
ec    62900  62.9           0.001          322.15844     -2199.15        21.279188     -1234.7006      10318.169    
ec    63000  63             0.001          316.54382     -2198.7482      20.908332     -1178.1532      10318.169    
ec    63100  63.1           0.001          315.03124     -2198.6982      20.808423     -1213.557       10318.169    
[...]
ec    74300  74.3           0.001          318.59948     -2198.9099      21.044112     -1224.6911      10318.169    
ec    74400  74.4           0.001          313.17049     -2198.5652      20.685517     -1162.1776      10318.169    
ec    74500  74.5           0.001          321.94954     -2199.1381      21.26539      -1234.4461      10318.169    
ec    74600  74.6           0.001          318.20428     -2198.8574      21.018008     -1189.7573      10318.169    
ec    74700  74.7           0.001          314.03866     -2198.6289      20.742861     -1206.7794      10318.169    
ec    74800  74.8           0.001          325.53184     -2199.3809      21.502007     -1242.6251      10318.169    
ec    74900  74.9           0.001          312.79661     -2198.4773      20.660821     -1160.1691      10318.169    
ec    75000  75             0.001          315.66128     -2198.7679      20.850038     -1210.2729      10318.169    
ec    75100  75.1           0.001          327.92403     -2199.4543      21.660016     -1224.2774      10318.169    
ec    75200  75.2           0.001          311.00423     -2198.4149      20.542431     -1197.7062      10318.169    
ec    75300  75.3           0.001          325.32863     -2199.3812      21.488585     -1224.7639      10318.169    
ec    75400  75.4           0.001          320.1948      -2198.9588      21.149486     -1205.8796      10318.169    
ec    75500  75.5           0.001          311.86436     -2198.5155      20.599244     -1176.6954      10318.169    
ec    75600  75.6           0.001          326.52953     -2199.4108      21.567907     -1239.9578      10318.169    
ec    75700  75.7           0.001          316.42567     -2198.7729      20.900528     -1216.718       10318.169    
ec    75800  75.8           0.001          315.38984     -2198.718       20.832109     -1178.4612      10318.169    
ec    75900  75.9           0.001          322.32847     -2199.1571      21.290419     -1234.2274      10318.169    
ec    76000  76             0.001          315.28402     -2198.6695      20.825119     -1170.76        10318.169    
ec    76100  76.1           0.001          316.33162     -2198.7835      20.894316     -1219.2257      10318.169    
ec    76200  76.2           0.001          325.58253     -2199.3692      21.505356     -1240.8536      10318.169    
ec    76300  76.3           0.001          311.14343     -2198.3886      20.551626     -1162.8937      10318.169    
ec    76400  76.4           0.001          318.43292     -2198.9491      21.033111     -1217.8949      10318.169    
ec    76500  76.5           0.001          324.59319     -2199.2252      21.440008     -1205.0342      10318.169    
ec    76600  76.6           0.001          310.73292     -2198.4134      20.52451      -1199.4055      10318.169    
ec    76700  76.7           0.001          328.41124     -2199.5617      21.692198     -1238.1097      10318.169    
ec    76800  76.8           0.001          317.32482     -2198.7781      20.959918     -1199.3781      10318.169    
ec    76900  76.9           0.001          313.66195     -2198.6397      20.717978     -1178.8965      10318.169    
ec    77000  77             0.001          326.75338     -2199.409       21.582692     -1237.1853      10318.169    
ec    77100  77.1           0.001          314.24888     -2198.6382      20.756746     -1206.1593      10318.169    
ec    77200  77.2           0.001          318.42681     -2198.9181      21.032707     -1198.6056      10318.169    
ec    77300  77.3           0.001          321.9423      -2199.1276      21.264912     -1232.9961      10318.169    
ec    77400  77.4           0.001          313.14523     -2198.538       20.683848     -1157.5787      10318.169    
ec    77500  77.5           0.001          318.57223     -2198.9293      21.042312     -1227.7626      10318.169    
ec    77600  77.6           0.001          324.3465      -2199.2748      21.423714     -1231.6987      10318.169    
ec    77700  77.7           0.001          310.82947     -2198.3877      20.530888     -1172.8763      10318.169    
ec    77800  77.8           0.001          321.23375     -2199.1271      21.21811      -1227.0664      10318.169    
ec    77900  77.9           0.001          320.62515     -2198.9636      21.177911     -1185.225       10318.169    
ec    78000  78             0.001          311.34752     -2198.4676      20.565106     -1201.3813      10318.169    
ec    78100  78.1           0.001          330.16858     -2199.6519      21.808273     -1244.2049      10318.169    
ec    78200  78.2           0.001          314.71674     -2198.6198      20.78765      -1196.307       10318.169    
ec    78300  78.3           0.001          316.6253      -2198.835       20.913714     -1188.2619      10318.169    
ec    78400  78.4           0.001          325.72432     -2199.3284      21.514722     -1228.9181      10318.169    
ec    78500  78.5           0.001          312.46652     -2198.5313      20.639018     -1194.4881      10318.169    
ec    78600  78.6           0.001          321.65517     -2199.1238      21.245946     -1217.9353      10318.169    
ec    78700  78.7           0.001          320.84447     -2199.0541      21.192398     -1230.5771      10318.169    
ec    78800  78.8           0.001          312.24894     -2198.4908      20.624646     -1153.3244      10318.169    
ec    78900  78.9           0.001          320.44848     -2199.0475      21.166242     -1232.4512      10318.169    
ec    79000  79             0.001          322.02031     -2199.1127      21.270065     -1215.8419      10318.169    
ec    79100  79.1           0.001          311.7222      -2198.463       20.589854     -1187.26        10318.169    
ec    79200  79.2           0.001          323.61824     -2199.2732      21.37561      -1235.8421      10318.169    
ec    79300  79.3           0.001          316.72622     -2198.7154      20.92038      -1169.3857      10318.169    
ec    79400  79.4           0.001          312.79442     -2198.5727      20.660676     -1204.198       10318.169    
ec    79500  79.5           0.001          330.24854     -2199.6326      21.813555     -1241.0662      10318.169    
ec    79600  79.6           0.001          312.63328     -2198.4992      20.650033     -1195.9621      10318.169    
ec    79700  79.7           0.001          320.34322     -2199.073       21.159289     -1203.1118      10318.169    
ec    79800  79.8           0.001          323.68174     -2199.1868      21.379805     -1218.1643      10318.169    
ec    79900  79.9           0.001          311.47013     -2198.4768      20.573204     -1184.1283      10318.169    
ec    80000  80             0.001          324.43679     -2199.2942      21.429677     -1232.3486      10318.169    
ec    80100  80.1           0.001          319.13807     -2198.9439      21.079687     -1226.2063      10318.169    
ec    80200  80.2           0.001          312.80592     -2198.5388      20.661436     -1159.0538      10318.169    
ec    80300  80.3           0.001          321.73282     -2199.1253      21.251075     -1234.2092      10318.169    
ec    80400  80.4           0.001          319.05287     -2198.9141      21.074059     -1195.9975      10318.169    
ec    80500  80.5           0.001          313.4927      -2198.5907      20.706799     -1202.6196      10318.169    
ec    80600  80.6           0.001          325.17816     -2199.3621      21.478647     -1241.6611      10318.169    
ec    80700  80.7           0.001          313.54044     -2198.5212      20.709953     -1160.881       10318.169    
ec    80800  80.8           0.001          314.96181     -2198.7207      20.803837     -1208.7873      10318.169    
ec    80900  80.9           0.001          328.62854     -2199.5059      21.70655      -1229.067       10318.169    
ec    81000  81             0.001          311.28413     -2198.428       20.560919     -1197.2103      10318.169    
ec    81100  81.1           0.001          324.22547     -2199.3142      21.415719     -1220.0595      10318.169    
ec    81200  81.2           0.001          321.013       -2199.011       21.20353      -1207.9652      10318.169    
ec    81300  81.3           0.001          311.59854     -2198.4954      20.581686     -1177.8618      10318.169    
ec    81400  81.4           0.001          326.2734      -2199.3986      21.550989     -1239.3668      10318.169    
ec    81500  81.5           0.001          317.04051     -2198.811       20.941139     -1219.1902      10318.169    
ec    81600  81.6           0.001          314.71746     -2198.6726      20.787697     -1173.3653      10318.169    
ec    81700  81.7           0.001          322.3063      -2199.1565      21.288954     -1234.192       10318.169    
ec    81800  81.8           0.001          316.05534     -2198.7195      20.876067     -1176.2354      10318.169    
ec    81900  81.9           0.001          315.73503     -2198.7434      20.854909     -1216.0491      10318.169    
ec    82000  82             0.001          325.58937     -2199.3743      21.505808     -1241.9276      10318.169    
ec    82100  82.1           0.001          311.51339     -2198.4073      20.576062     -1161.0844      10318.169    
ec    82200  82.2           0.001          317.61154     -2198.8954      20.978857     -1215.6325      10318.169    
ec    82300  82.3           0.001          325.61685     -2199.2952      21.507623     -1210.87        10318.169    
ec    82400  82.4           0.001          310.77138     -2198.411       20.527051     -1199.0149      10318.169    
ec    82500  82.5           0.001          327.57484     -2199.5139      21.636952     -1234.782       10318.169    
ec    82600  82.6           0.001          318.12631     -2198.8275      21.012858     -1200.4266      10318.169    
ec    82700  82.7           0.001          313.01428     -2198.5958      20.675199     -1177.9257      10318.169    
ec    82800  82.8           0.001          326.86043     -2199.4202      21.589763     -1238.5587      10318.169    
ec    82900  82.9           0.001          314.83962     -2198.6741      20.795766     -1209.4775      10318.169    
ec    83000  83             0.001          317.58124     -2198.8632      20.976855     -1192.7675      10318.169    
ec    83100  83.1           0.001          322.12005     -2199.1394      21.276653     -1233.1417      10318.169    
ec    83200  83.2           0.001          313.66038     -2198.5698      20.717875     -1161.0031      10318.169    
ec    83300  83.3           0.001          318.02917     -2198.894       21.006442     -1225.8035      10318.169    
ec    83400  83.4           0.001          324.71521     -2199.3032      21.448068     -1235.0275      10318.169    
ec    83500  83.5           0.001          310.82845     -2198.3823      20.53082      -1169.1962      10318.169    
ec    83600  83.6           0.001          320.399       -2199.074       21.162974     -1224.3203      10318.169    
ec    83700  83.7           0.001          321.77551     -2199.039       21.253895     -1190.712       10318.169    
ec    83800  83.8           0.001          311.13136     -2198.4493      20.550828     -1201.0009      10318.169    
ec    83900  83.9           0.001          329.75712     -2199.6328      21.781095     -1243.2571      10318.169    
ec    84000  84             0.001          315.40657     -2198.6606      20.833214     -1196.3869      10318.169    
ec    84100  84.1           0.001          315.65145     -2198.7716      20.849389     -1185.1883      10318.169    
ec    84200  84.2           0.001          326.15794     -2199.3597      21.543363     -1231.4953      10318.169    
ec    84300  84.3           0.001          312.90861     -2198.5571      20.668219     -1198.126       10318.169    
ec    84400  84.4           0.001          320.8155      -2199.0712      21.190484     -1212.7271      10318.169    
ec    84500  84.5           0.001          321.19986     -2199.0769      21.215872     -1231.0793      10318.169    
ec    84600  84.6           0.001          312.39691     -2198.4978      20.63442      -1153.9259      10318.169    
ec    84700  84.7           0.001          320.0274      -2199.021       21.138429     -1231.5202      10318.169    
ec    84800  84.8           0.001          322.68475     -2199.1595      21.313952     -1221.0949      10318.169    
ec    84900  84.9           0.001          311.41325     -2198.4384      20.569448     -1182.6856      10318.169    
ec    85000  85             0.001          322.91608     -2199.2303      21.329232     -1233.3365      10318.169    
ec    85100  85.1           0.001          317.80322     -2198.7835      20.991517     -1173.2525      10318.169    
ec    85200  85.2           0.001          312.3455      -2198.5402      20.631024     -1203.5768      10318.169    
ec    85300  85.3           0.001          330.34616     -2199.6465      21.820003     -1242.9015      10318.169    
ec    85400  85.4           0.001          313.16787     -2198.529       20.685344     -1195.4787      10318.169    
ec    85500  85.5           0.001          319.19101     -2199           21.083184     -1198.5976      10318.169    
ec    85600  85.6           0.001          324.36142     -2199.2325      21.424699     -1221.027       10318.169    
ec    85700  85.7           0.001          311.65683     -2198.4858      20.585536     -1187.2671      10318.169    
ec    85800  85.8           0.001          323.78599     -2199.2553      21.386691     -1228.8735      10318.169    
ec    85900  85.9           0.001          319.6482      -2198.9759      21.113382     -1227.3998      10318.169    
ec    86000  86             0.001          312.55399     -2198.5198      20.644796     -1156.7207      10318.169    
ec    86100  86.1           0.001          321.48249     -2199.1101      21.23454      -1233.9176      10318.169    
ec    86200  86.2           0.001          319.87591     -2198.9697      21.128423     -1202.2114      10318.169    
ec    86300  86.3           0.001          312.98787     -2198.5547      20.673454     -1198.1849      10318.169    
ec    86400  86.4           0.001          324.72666     -2199.3366      21.448824     -1240.2223      10318.169    
ec    86500  86.5           0.001          314.36914     -2198.5711      20.76469      -1162.3036      10318.169    
ec    86600  86.6           0.001          314.30641     -2198.6759      20.760546     -1207.5543      10318.169    
ec    86700  86.7           0.001          329.21299     -2199.5502      21.745155     -1233.3379      10318.169    
ec    86800  86.8           0.001          311.61245     -2198.4441      20.582605     -1196.5639      10318.169    
ec    86900  86.9           0.001          323.07664     -2199.2437      21.339837     -1215.2156      10318.169    
ec    87000  87             0.001          321.81545     -2199.0627      21.256533     -1210.2696      10318.169    
ec    87100  87.1           0.001          311.43647     -2198.482       20.570981     -1179.6174      10318.169    
ec    87200  87.2           0.001          325.92767     -2199.3804      21.528153     -1238.1339      10318.169    
ec    87300  87.3           0.001          317.63676     -2198.848       20.980522     -1221.3174      10318.169    
ec    87400  87.4           0.001          314.11352     -2198.6315      20.747805     -1168.7071      10318.169    
ec    87500  87.5           0.001          322.2437      -2199.1533      21.28482      -1234.1749      10318.169    
ec    87600  87.6           0.001          316.85258     -2198.7717      20.928726     -1182.0924      10318.169    
ec    87700  87.7           0.001          315.14771     -2198.7036      20.816116     -1212.5108      10318.169    
ec    87800  87.8           0.001          325.47383     -2199.3714      21.498176     -1242.326       10318.169    
ec    87900  87.9           0.001          311.98823     -2198.433       20.607426     -1159.903       10318.169    
ec    88000  88             0.001          316.81428     -2198.8427      20.926196     -1213.6269      10318.169    
ec    88100  88.1           0.001          326.56925     -2199.3613      21.57053      -1216.581       10318.169    
ec    88200  88.2           0.001          310.86748     -2198.4123      20.533398     -1198.4851      10318.169    
ec    88300  88.3           0.001          326.63644     -2199.4591      21.574969     -1230.9378      10318.169    
ec    88400  88.4           0.001          318.94046     -2198.8781      21.066634     -1201.7219      10318.169    
ec    88500  88.5           0.001          312.46987     -2198.5583      20.639239     -1177.6684      10318.169    
ec    88600  88.6           0.001          326.87745     -2199.4256      21.590888     -1239.4559      10318.169    
ec    88700  88.7           0.001          315.43721     -2198.7106      20.835238     -1212.5322      10318.169    
ec    88800  88.8           0.001          316.76294     -2198.8097      20.922805     -1186.9769      10318.169    
ec    88900  88.9           0.001          322.25052     -2199.1483      21.28527      -1233.2509      10318.169    
ec    89000  89             0.001          314.25524     -2198.6073      20.757166     -1165.1801      10318.169    
ec    89100  89.1           0.001          317.46863     -2198.8573      20.969417     -1223.495       10318.169    
ec    89200  89.2           0.001          324.96925     -2199.3243      21.464848     -1237.683       10318.169    
ec    89300  89.3           0.001          310.92701     -2198.3833      20.537331     -1165.8933      10318.169    
ec    89400  89.4           0.001          319.56479     -2199.0205      21.107873     -1221.7341      10318.169    
ec    89500  89.5           0.001          322.91426     -2199.1146      21.329111     -1196.4914      10318.169    
ec    89600  89.6           0.001          310.98858     -2198.4355      20.541397     -1200.6101      10318.169    
ec    89700  89.7           0.001          329.20813     -2199.6047      21.744834     -1241.5482      10318.169    
ec    89800  89.8           0.001          316.14111     -2198.7045      20.881732     -1196.6519      10318.169    
ec    89900  89.9           0.001          314.76444     -2198.7132      20.7908       -1182.7654      10318.169    
Fix halt condition for fix-id myhalt met on step 90000 with value 90 (../fix_halt.cpp:240)
ec    90000  90             0.001          326.52229     -2199.3868      21.567429     -1233.8663      10318.169    
Loop time of 3.89577 on 2 procs for 30000 steps with 512 atoms

Performance: 665.338 ns/day, 0.036 hours/ns, 7700.670 timesteps/s, 3.943 Matom-step/s
95.6% CPU use with 2 MPI tasks x no OpenMP threads

MPI task timing breakdown:
Section |  min time  |  avg time  |  max time  |%varavg| %total
---------------------------------------------------------------
Pair    | 3.3092     | 3.3226     | 3.3359     |   0.7 | 85.29
Neigh   | 0          | 0          | 0          |   0.0 |  0.00
Comm    | 0.36142    | 0.37524    | 0.38905    |   2.3 |  9.63
Output  | 0.0021752  | 0.0033939  | 0.0046126  |   2.1 |  0.09
Modify  | 0.1429     | 0.14335    | 0.14381    |   0.1 |  3.68
Other   |            | 0.05122    |            |       |  1.31

Nlocal:            256 ave         256 max         256 min
Histogram: 2 0 0 0 0 0 0 0 0 0
Nghost:           1081 ave        1081 max        1081 min
Histogram: 2 0 0 0 0 0 0 0 0 0
Neighs:              0 ave           0 max           0 min
Histogram: 2 0 0 0 0 0 0 0 0 0
FullNghs:         8704 ave        8704 max        8704 min
Histogram: 2 0 0 0 0 0 0 0 0 0

Total # of neighbors = 17408
Ave neighs/atom = 34
Neighbor list builds = 0
Dangerous builds = 0

write_data cell.data
System init for write_data ...
WARNING: One or more atoms are time integrated more than once (../modify.cpp:296)
Total wall time: 0:00:14
