

units metal
timestep 0.001
boundary p p p

lattice         diamond 5.43
Lattice spacing in x,y,z = 5.43 5.43 5.43
region          box block 0 ${N} 0 ${N} 0 ${N}
region          box block 0 5 0 ${N} 0 ${N}
region          box block 0 5 0 5 0 ${N}
region          box block 0 5 0 5 0 5
create_box      1 box
Created orthogonal box = (0 0 0) to (27.15 27.15 27.15)
  1 by 1 by 2 MPI processor grid
create_atoms    1 box
Created 1000 atoms
  using lattice units in orthogonal box = (0 0 0) to (27.15 27.15 27.15)
  create_atoms CPU = 0.000 seconds

timestep ${dt}
timestep 0.001

mass 1 28.0855
labelmap atom 1 Si

pair_style sw
pair_coeff * * Si.sw Si
Reading sw potential file Si.sw with DATE: 2007-06-11


velocity all create ${temp} 4928459 mom yes rot yes dist gaussian
velocity all create 300 4928459 mom yes rot yes dist gaussian

variable t equal time
#fix myhalt all halt 100 v_t >= 30.0 error continue

#fix NVE all nve

#run 10000000

#unfix myhalt

compute 1 all vacf

thermo 100
thermo_style	custom step time dt temp pe ke press vol #c_1[4]
thermo_modify	line one flush yes format 1 "ec %8lu" flush yes


fix NPT all npt temp ${temp} ${temp} ${tau_T} iso 0.0 0.0 1.0
fix NPT all npt temp 300 ${temp} ${tau_T} iso 0.0 0.0 1.0
fix NPT all npt temp 300 300 ${tau_T} iso 0.0 0.0 1.0
fix NPT all npt temp 300 300 0.1 iso 0.0 0.0 1.0

fix myhalt all halt 100 v_t >= 30.0 error continue

run 10000000

CITE-CITE-CITE-CITE-CITE-CITE-CITE-CITE-CITE-CITE-CITE-CITE-CITE

Your simulation uses code contributions which should be cited:

- Type Label Framework: https://doi.org/10.1021/acs.jpcb.3c08419

@Article{Gissinger24,
 author = {Jacob R. Gissinger, Ilia Nikiforov, Yaser Afshar, Brendon Waters, Moon-ki Choi, Daniel S. Karls, Alexander Stukowski, Wonpil Im, Hendrik Heinz, Axel Kohlmeyer, and Ellad B. Tadmor},
 title = {Type Label Framework for Bonded Force Fields in LAMMPS},
 journal = {J. Phys. Chem. B},
 year =    2024,
 volume =  128,
 number =  13,
 pages =   {3282--3297}
}

CITE-CITE-CITE-CITE-CITE-CITE-CITE-CITE-CITE-CITE-CITE-CITE-CITE

Neighbor list info ...
  update: every = 1 steps, delay = 0 steps, check = yes
  max neighbors/atom: 2000, page size: 100000
  master list distance cutoff = 5.77118
  ghost atom cutoff = 5.77118
  binsize = 2.88559, bins = 10 10 10
  1 neighbor lists, perpetual/occasional/extra = 1 0 0
  (1) pair sw, perpetual
      attributes: full, newton on
      pair build: full/bin/atomonly
      stencil: full/bin/3d
      bin: standard
Per MPI rank memory allocation (min/avg/max) = 3.639 | 3.639 | 3.639 Mbytes
   Step          Time            Dt            Temp          PotEng         KinEng         Press          Volume    
ec        0  0              0.001          300           -4336.5983      38.739265      2600.1416      20012.876    
ec      100  0.1            0.001          164.57536     -4315.4545      21.251762     -1253.4176      20091.16     
ec      200  0.2            0.001          153.33886     -4308.0017      19.800783      403.07388      20063.561    
ec      300  0.3            0.001          211.61037     -4308.2579      27.325434      1127.1202      20054.402    
ec      400  0.4            0.001          272.60262     -4308.1901      35.201417     -1373.2037      20115.115    
ec      500  0.5            0.001          295.92186     -4303.4046      38.212651      2307.9783      20048.611    
ec      600  0.6            0.001          317.10842     -4299.6211      40.948491     -1115.5325      20119.246    
ec      700  0.7            0.001          325.48434     -4296.5508      42.030081      169.37481      20096.687    
ec      800  0.8            0.001          295.25648     -4292.6576      38.126731      1180.3282      20078.255    
ec      900  0.9            0.001          310.34121     -4298.0946      40.074635     -1516.121       20129.624    
ec     1000  1              0.001          293.30815     -4299.1402      37.875141      1970.3607      20053.61     
ec     1100  1.1            0.001          277.07668     -4297.8935      35.779157     -1183.9693      20114.463    
ec     1200  1.2            0.001          312.70612     -4300.0515      40.380019     -302.45516      20103.02     
ec     1300  1.3            0.001          327.93366     -4299.1099      42.346364      2051.7888      20057.38     
ec     1400  1.4            0.001          277.11378     -4291.7443      35.783948     -2768.4809      20146.535    
ec     1500  1.5            0.001          276.88799     -4293.1388      35.754791      1154.9584      20071.991    
ec     1600  1.6            0.001          286.53169     -4296.9016      37.000091      382.21026      20089.201    
ec     1700  1.7            0.001          306.7518      -4300.5083      39.611132     -910.95468      20116.126    
ec     1800  1.8            0.001          295.19079     -4298.4347      38.118248      1805.4848      20056.899    
ec     1900  1.9            0.001          320.34416     -4299.3133      41.366324     -1785.9926      20132.049    
ec     2000  2              0.001          306.93766     -4296.1539      39.635132      1180.8739      20077.044    
ec     2100  2.1            0.001          318.77126     -4298.2845      41.163215      372.56432      20091.409    
ec     2200  2.2            0.001          300.80898     -4297.7215      38.84373      -867.65095      20115.174    
ec     2300  2.3            0.001          285.07141     -4297.2926      36.811523      1607.2114      20063.371    
ec     2400  2.4            0.001          303.02129     -4299.5964      39.129407     -1490.3342      20121.321    
ec     2500  2.5            0.001          330.52657     -4301.1547      42.681188      876.2618       20084.159    
ec     2600  2.6            0.001          304.74246     -4296.6466      39.351664      1158.7297      20076.342    
ec     2700  2.7            0.001          292.86594     -4294.7739      37.818038     -1537.6786      20132.711    
ec     2800  2.8            0.001          290.18787     -4295.8899      37.472217      1614.1096      20063.226    
ec     2900  2.9            0.001          312.50638     -4300.0691      40.354225     -442.3613       20107.874    
ec     3000  3              0.001          305.02684     -4299.6649      39.388386      82.610944      20095.517    
ec     3100  3.1            0.001          330.26377     -4301.8667      42.647253      993.68068      20077.901    
ec     3200  3.2            0.001          315.10024     -4298.3773      40.689173     -1075.6944      20119.003    
ec     3300  3.3            0.001          296.92458     -4295.5181      38.342134      857.20752      20079.23     
ec     3400  3.4            0.001          287.69815     -4295.1256      37.150716     -448.25479      20103.271    
ec     3500  3.5            0.001          292.29767     -4297.3482      37.744657     -389.7117       20101.274    
ec     3600  3.6            0.001          298.92884     -4298.8603      38.600946      801.79814      20079.001    
ec     3700  3.7            0.001          294.90155     -4297.2292      38.080898     -1332.6843      20118.725    
ec     3800  3.8            0.001          314.43422     -4297.6233      40.603168      886.63902      20079.444    
ec     3900  3.9            0.001          268.51923     -4291.1429      34.674126     -168.64239      20100.709    
ec     4000  4              0.001          309.02568     -4297.3192      39.90476      -880.82798      20114.298    
ec     4100  4.1            0.001          318.85552     -4299.3614      41.174095      1038.5914      20071.424    
ec     4200  4.2            0.001          284.01079     -4295.5394      36.674565     -1226.8961      20118.355    
ec     4300  4.3            0.001          246.90012     -4292.0516      31.882431      92.159468      20089.651    
ec     4400  4.4            0.001          290.33315     -4297.7233      37.490976      202.80413      20089.28     
ec     4500  4.5            0.001          308.59296     -4297.8344      39.848882     -728.63391      20109.324    
ec     4600  4.6            0.001          294.51502     -4294.5697      38.030985      457.21253      20085.082    
ec     4700  4.7            0.001          281.28107     -4293.6955      36.322074     -406.21639      20106.421    
ec     4800  4.8            0.001          296.7425      -4297.5191      38.318621      135.04487      20095.259    
ec     4900  4.9            0.001          294.18114     -4297.5867      37.987871      541.21938      20085.999    
ec     5000  5              0.001          325.0344      -4300.9608      41.97198      -489.89289      20108.43     
ec     5100  5.1            0.001          305.90481     -4298.1207      39.501758      1203.5275      20071.468    
ec     5200  5.2            0.001          274.82888     -4293.7617      35.488896     -1057.6401      20117.697    
ec     5300  5.3            0.001          305.62801     -4297.558       39.466015      82.235203      20094.451    
ec     5400  5.4            0.001          314.37809     -4298.9625      40.595921      1028.8344      20076.359    
ec     5500  5.5            0.001          299.53406     -4298.1633      38.679098     -1237.3215      20120.709    
ec     5600  5.6            0.001          310.84564     -4299.8046      40.139772      1443.0382      20071.689    
ec     5700  5.7            0.001          316.99911     -4299.8296      40.934376      141.4282       20096.963    
ec     5800  5.8            0.001          314.51042     -4297.9707      40.613009     -752.66327      20112.915    
ec     5900  5.9            0.001          308.25519     -4295.9596      39.805266      1404.8355      20069.833    
ec     6000  6              0.001          293.18764     -4296.0105      37.859579     -1355.1065      20125.885    
ec     6100  6.1            0.001          292.10337     -4297.6547      37.719567      1235.3218      20074.385    
ec     6200  6.2            0.001          307.23641     -4299.3736      39.67371       319.94161      20090.286    
ec     6300  6.3            0.001          319.4879      -4299.6817      41.255755     -1457.0361      20125.707    
ec     6400  6.4            0.001          287.02473     -4294.2405      37.063758      2325.0495      20048.252    
ec     6500  6.5            0.001          319.40887     -4298.5903      41.24555      -2738.4735      20150.478    
ec     6600  6.6            0.001          307.64671     -4299.9035      39.726691      1691.4177      20064.413    
ec     6700  6.7            0.001          317.78893     -4301.7101      41.036366      1288.9315      20072.874    
ec     6800  6.8            0.001          294.80432     -4298.0574      38.068343     -3059.8144      20154.345    
ec     6900  6.9            0.001          309.74246     -4298.2346      39.997317      3179.8316      20032.205    
ec     7000  7              0.001          297.2005      -4296.3059      38.377763     -2035.9138      20136.73     
ec     7100  7.1            0.001          285.9585      -4295.1708      36.926075     -6.0303616      20096.951    
ec     7200  7.2            0.001          309.2567      -4300.2164      39.934591      2059.4735      20052.91     
ec     7300  7.3            0.001          294.33456     -4299.4839      38.007683     -3296.0725      20158.245    
ec     7400  7.4            0.001          287.67698     -4297.3554      37.147983      3009.1755      20034.274    
ec     7500  7.5            0.001          310.45703     -4298.8643      40.089591     -1588.5063      20126.763    
ec     7600  7.6            0.001          307.75961     -4297.976       39.74127      -176.37947      20101.881    
ec     7700  7.7            0.001          284.83778     -4295.2041      36.781354      2089.0979      20054.343    
ec     7800  7.8            0.001          295.70059     -4297.3026      38.184079     -2875.2439      20155.322    
ec     7900  7.9            0.001          324.82435     -4302.4179      41.944856      2884.344       20042.256    
ec     8000  8              0.001          289.11401     -4298.8884      37.333549     -464.25217      20102.639    
ec     8100  8.1            0.001          287.95505     -4296.7842      37.183891     -1551.436       20124.739    
ec     8200  8.2            0.001          297.32547     -4296.7033      38.393902      2475.205       20047.032    
ec     8300  8.3            0.001          312.25565     -4298.4548      40.321848     -1862.2527      20135.829    
ec     8400  8.4            0.001          296.09176     -4296.5977      38.234591      1075.4614      20076.132    
ec     8500  8.5            0.001          282.56479     -4296.2609      36.487842      188.69847      20089.46     
ec     8600  8.6            0.001          311.18385     -4301.3318      40.183445     -1294.7352      20119.269    
ec     8700  8.7            0.001          300.28268     -4299.2814      38.775768      1708.8376      20059.818    
ec     8800  8.8            0.001          322.65724     -4299.1055      41.665015     -1215.7687      20123.924    
ec     8900  8.9            0.001          312.93082     -4297.7788      40.409034      894.05107      20081.187    
ec     9000  9              0.001          270.24346     -4293.6491      34.896777     -183.01666      20094.769    
ec     9100  9.1            0.001          296.10496     -4298.1817      38.236296     -1121.1302      20116.538    
ec     9200  9.2            0.001          303.88517     -4299.2691      39.240961      1691.4743      20061.93     
ec     9300  9.3            0.001          292.02653     -4295.489       37.709645     -1370.7831      20121.944    
ec     9400  9.4            0.001          314.5776      -4296.9515      40.621684     -65.376682      20098.065    
ec     9500  9.5            0.001          302.54682     -4296.713       39.068139      1187.7066      20074.094    
ec     9600  9.6            0.001          314.15414     -4299.7934      40.567003     -1420.4391      20125.46     
ec     9700  9.7            0.001          285.05877     -4296.9201      36.809891      1276.4158      20067.211    
ec     9800  9.8            0.001          308.62656     -4299.0051      39.853221     -780.00988      20112.071    
ec     9900  9.9            0.001          329.84667     -4300.0325      42.593393     -192.60614      20100.175    
ec    10000  10             0.001          312.1434      -4294.587       40.307353      980.35151      20079.708    
ec    10100  10.1           0.001          295.81132     -4293.3026      38.198378     -1324.061       20125.39     
ec    10200  10.2           0.001          267.51532     -4292.1362      34.54449       564.64518      20080.2      
ec    10300  10.3           0.001          304.38125     -4298.0412      39.30502      -774.48569      20107.294    
ec    10400  10.4           0.001          313.60317     -4300.0239      40.495854     -357.18559      20103.949    
ec    10500  10.5           0.001          313.35265     -4300.5414      40.463505      1505.4381      20065.061    
ec    10600  10.6           0.001          282.67117     -4295.0813      36.501579     -1715.1217      20130.113    
ec    10700  10.7           0.001          310.46574     -4296.5247      40.090716      722.30533      20080.371    
ec    10800  10.8           0.001          300.20149     -4295.6399      38.765283      125.23797      20093.349    
ec    10900  10.9           0.001          294.81117     -4296.1395      38.069227     -1471.0804      20124.395    
ec    11000  11             0.001          298.26556     -4297.4492      38.515295      1762.1385      20059.311    
ec    11100  11.1           0.001          295.58952     -4297.1242      38.169736     -1270.2619      20122.236    
ec    11200  11.2           0.001          292.64112     -4296.8253      37.789007      399.55972      20087.681    
ec    11300  11.3           0.001          311.31893     -4297.9685      40.20089       727.407        20082.422    
ec    11400  11.4           0.001          313.27577     -4296.2765      40.453577     -1339.8906      20125.969    
ec    11500  11.5           0.001          292.15861     -4294.2199      37.7267        1718.0223      20066.789    
ec    11600  11.6           0.001          312.19193     -4299.127       40.31362      -522.03229      20111.483    
ec    11700  11.7           0.001          314.13236     -4299.8118      40.56419       284.05939      20093.378    
ec    11800  11.8           0.001          302.04245     -4298.0802      39.003009      1333.496       20069.637    
ec    11900  11.9           0.001          296.9301      -4296.3412      38.342846     -2236.6368      20142.115    
ec    12000  12             0.001          323.617       -4298.2377      41.788949      2315.9671      20051.516    
ec    12100  12.1           0.001          317.11518     -4296.1628      40.949364     -946.49687      20118.098    
ec    12200  12.2           0.001          294.28141     -4295.6666      38.000819     -873.48472      20113.141    
ec    12300  12.3           0.001          299.83306     -4297.6281      38.717709      2386.2821      20049.149    
ec    12400  12.4           0.001          306.98408     -4299.1802      39.641126     -2658.1293      20147.838    
ec    12500  12.5           0.001          298.37326     -4297.6076      38.529204      1855.6792      20060.092    
ec    12600  12.6           0.001          303.34445     -4296.2933      39.171138      159.27087      20093.487    
ec    12700  12.7           0.001          309.82627     -4296.3432      40.008141     -1988.0433      20136.817    
ec    12800  12.8           0.001          300.44606     -4297.0716      38.796865      2896.3188      20037.947    
ec    12900  12.9           0.001          306.03925     -4299.9754      39.519119     -2644.3476      20148.859    
ec    13000  13             0.001          287.97938     -4297.0244      37.187033      1505.1052      20065.941    
ec    13100  13.1           0.001          302.1986      -4297.4552      39.023172      832.32692      20079.005    
ec    13200  13.2           0.001          297.88193     -4295.9262      38.465758     -3264.9274      20161.593    
ec    13300  13.3           0.001          308.69144     -4297.3201      39.861599      4398.2129      20009.495    
ec    13400  13.4           0.001          303.2202      -4299.2513      39.155093     -3253.8661      20161.731    
ec    13500  13.5           0.001          289.28903     -4298.3385      37.356148      748.0624       20080.954    
ec    13600  13.6           0.001          313.64152     -4299.9412      40.500807      2747.0986      20044.596    
ec    13700  13.7           0.001          304.5476      -4297.5583      39.326501     -4109.3855      20177.464    
ec    13800  13.8           0.001          300.62736     -4296.7283      38.820277      3634.6226      20023.864    
ec    13900  13.9           0.001          298.88753     -4297.1071      38.595611     -1621.1423      20129.068    
ec    14000  14             0.001          293.20803     -4296.6092      37.862212     -562.04787      20107.925    
ec    14100  14.1           0.001          305.02148     -4298.9308      39.387694      2355.931       20049.274    
ec    14200  14.2           0.001          296.03642     -4299.9291      38.227445     -2634.3776      20147.295    
ec    14300  14.3           0.001          292.97162     -4299.0912      37.831685      2332.0287      20048.884    
ec    14400  14.4           0.001          315.71102     -4299.9775      40.768043     -723.8079       20112.273    
ec    14500  14.5           0.001          329.95116     -4300.7267      42.606886     -180.33274      20104.301    
ec    14600  14.6           0.001          311.85096     -4298.2435      40.269591      2052.7486      20060.373    
ec    14700  14.7           0.001          285.07658     -4295.792       36.812191     -1873.6322      20132.958    
ec    14800  14.8           0.001          290.57697     -4297.9166      37.522461      1205.7793      20073.213    
ec    14900  14.9           0.001          293.52193     -4299.8483      37.902746      441.22322      20085.382    
ec    15000  15             0.001          304.67306     -4299.7008      39.342702     -1099.5645      20116.118    
ec    15100  15.1           0.001          293.71417     -4296.6244      37.927571      1564.5386      20067.022    
ec    15200  15.2           0.001          289.68747     -4295.7395      37.407599     -979.41963      20115.841    
ec    15300  15.3           0.001          294.10507     -4296.2295      37.978048      207.09455      20090.511    
ec    15400  15.4           0.001          311.88593     -4299.036       40.274105      544.89076      20085.8      
ec    15500  15.5           0.001          314.33664     -4300.815       40.590569     -805.10807      20111.076    
ec    15600  15.6           0.001          298.77663     -4299.7243      38.581291      1002.0127      20071.838    
ec    15700  15.7           0.001          282.08746     -4295.6941      36.426204     -1118.0242      20114.34     
ec    15800  15.8           0.001          294.86405     -4295.6754      38.076056      50.433056      20092.802    
ec    15900  15.9           0.001          277.64738     -4293.7622      35.852852      120.11659      20088.628    
ec    16000  16             0.001          282.03501     -4295.3303      36.41943      -1199.278       20117.713    
ec    16100  16.1           0.001          308.1161      -4299.9947      39.787305      1116.0869      20072.758    
ec    16200  16.2           0.001          295.54989     -4299.4364      38.164619     -607.08713      20101.755    
ec    16300  16.3           0.001          282.41414     -4296.0806      36.468387     -775.65955      20107.206    
ec    16400  16.4           0.001          291.83877     -4295.2684      37.685398      827.86905      20077.153    
ec    16500  16.5           0.001          308.16457     -4296.6715      39.793563     -1134.9845      20121.279    
ec    16600  16.6           0.001          300.21852     -4297.2592      38.767483      866.83738      20077.607    
ec    16700  16.7           0.001          309.09967     -4299.7318      39.914314     -153.0406       20098.386    
ec    16800  16.8           0.001          284.16235     -4296.5698      36.694136     -715.25294      20105.773    
ec    16900  16.9           0.001          284.53522     -4296.0578      36.742285      703.70688      20078.303    
ec    17000  17             0.001          307.28187     -4298.3549      39.679579     -964.43989      20115.61     
ec    17100  17.1           0.001          314.25871     -4299.0643      40.580505      1076.4535      20077.207    
ec    17200  17.2           0.001          296.67976     -4297.009       38.310519      59.821748      20095.45     
ec    17300  17.3           0.001          308.79647     -4298.0158      39.875162     -1072.1598      20117.961    
ec    17400  17.4           0.001          317.5056      -4298.3012      40.999779      1887.7033      20060.687    
ec    17500  17.5           0.001          315.23011     -4298.0033      40.705943     -1604.698       20129.501    
ec    17600  17.6           0.001          297.50855     -4297.3882      38.417542      594.55859      20082.8      
ec    17700  17.7           0.001          303.33244     -4299.3518      39.169586      990.78127      20074.532    
ec    17800  17.8           0.001          297.96586     -4298.5515      38.476596     -2494.441       20141.098    
ec    17900  17.9           0.001          296.50166     -4295.5106      38.287522      2322.6795      20047.169    
ec    18000  18             0.001          286.51791     -4293.4482      36.998311     -1703.7235      20131.641    
ec    18100  18.1           0.001          274.76365     -4293.4475      35.480473     -350.51469      20099.452    
ec    18200  18.2           0.001          304.29023     -4298.1974      39.293267      1729.4744      20058.639    
ec    18300  18.3           0.001          281.59485     -4296.0944      36.362592     -3214.5067      20157.185    
ec    18400  18.4           0.001          276.23027     -4295.6431      35.669859      2720.0805      20037.586    
ec    18500  18.5           0.001          293.10811     -4295.6789      37.84931      -1769.778       20127.552    
ec    18600  18.6           0.001          314.17718     -4297.1296      40.569978     -1154.4132      20119.249    
ec    18700  18.7           0.001          300.80573     -4296.3784      38.84331       3177.6825      20032.108    
ec    18800  18.8           0.001          279.54866     -4295.7743      36.098366     -4469.2895      20178.476    
ec    18900  18.9           0.001          265.0877      -4294.3515      34.231009      2489.8941      20039.644    
ec    19000  19             0.001          283.76486     -4295.8848      36.642808     -543.6947       20104.873    
ec    19100  19.1           0.001          296.81201     -4296.8257      38.327598     -2219.7143      20137.293    
ec    19200  19.2           0.001          330.82671     -4299.7677      42.719945      3471.5118      20030.609    
ec    19300  19.3           0.001          302.31299     -4294.828       39.037944     -2769.4415      20153.292    
ec    19400  19.4           0.001          304.5009      -4294.8673      39.320471      1208.2966      20074.335    
ec    19500  19.5           0.001          302.90818     -4297.2877      39.114802      670.76779      20082.813    
ec    19600  19.6           0.001          316.33172     -4300.1229      40.848194     -1841.89        20133.111    
ec    19700  19.7           0.001          293.50957     -4297.3826      37.901151      2572.534       20042.997    
ec    19800  19.8           0.001          292.79063     -4296.4306      37.808313     -2117.2303      20137.163    
ec    19900  19.9           0.001          324.79631     -4298.3889      41.941235      752.31788      20083.246    
ec    20000  20             0.001          316.57331     -4296.9773      40.879391      1082.5163      20076.652    
ec    20100  20.1           0.001          299.11654     -4296.5761      38.625183     -2144.9278      20139.899    
ec    20200  20.2           0.001          307.19977     -4298.3123      39.668978      2463.8595      20048.057    
ec    20300  20.3           0.001          301.47771     -4298.0057      38.930084     -1171.298       20120.14     
ec    20400  20.4           0.001          293.59616     -4296.8818      37.912332     -388.08817      20101.635    
ec    20500  20.5           0.001          308.45817     -4297.5451      39.831476      1833.857       20063.254    
ec    20600  20.6           0.001          301.40127     -4295.6246      38.920213     -1908.488       20133.376    
ec    20700  20.7           0.001          306.66473     -4295.6092      39.599887      1122.8641      20073.247    
ec    20800  20.8           0.001          298.50139     -4296.9392      38.545748     -544.19428      20104.521    
ec    20900  20.9           0.001          295.15099     -4297.612       38.113109     -682.58691      20107.261    
ec    21000  21             0.001          294.59766     -4297.6761      38.041657      1502.163       20063.259    
ec    21100  21.1           0.001          294.42563     -4296.6294      38.019442     -1876.4351      20133.023    
ec    21200  21.2           0.001          309.55017     -4296.5672      39.972488      1464.4566      20067.906    
ec    21300  21.3           0.001          304.71771     -4295.6503      39.348468     -422.86716      20105.386    
ec    21400  21.4           0.001          295.86748     -4297.19        38.20563      -1042.0016      20115.288    
ec    21500  21.5           0.001          287.69846     -4296.9846      37.150757      2025.2593      20055.716    
ec    21600  21.6           0.001          281.47955     -4295.865       36.347703     -1910.4313      20129.898    
ec    21700  21.7           0.001          303.52146     -4297.2823      39.193995      583.89538      20083.757    
ec    21800  21.8           0.001          301.41769     -4296.2827      38.922333      579.78804      20082.921    
ec    21900  21.9           0.001          303.11215     -4296.576       39.14114      -1802.6375      20131.043    
ec    22000  22             0.001          285.57391     -4296.7397      36.876411      1720.7716      20058.916    
ec    22100  22.1           0.001          278.98343     -4296.5881      36.025377     -1124.1624      20116.758    
ec    22200  22.2           0.001          302.81712     -4298.4447      39.103042      416.87601      20089.287    
ec    22300  22.3           0.001          324.03226     -4299.7406      41.842573      905.47866      20078.231    
ec    22400  22.4           0.001          298.15797     -4296.0403      38.501403     -1753.2517      20131.068    
ec    22500  22.5           0.001          295.36619     -4296.2462      38.140897      1812.4226      20059.936    
ec    22600  22.6           0.001          299.26185     -4297.1359      38.643948     -943.94427      20115.542    
ec    22700  22.7           0.001          309.81548     -4298.7236      40.006747     -0.64113041     20097.378    
ec    22800  22.8           0.001          306.22261     -4299.2711      39.542797      1331.4616      20067.779    
ec    22900  22.9           0.001          280.77505     -4297.8729      36.256731     -2043.731       20132.305    
ec    23000  23             0.001          295.17619     -4299.4635      38.116363      1672.2766      20062.501    
ec    23100  23.1           0.001          299.4646      -4297.5794      38.670128     -224.06206      20099.852    
ec    23200  23.2           0.001          313.27714     -4298.3471      40.453754     -872.89644      20115.244    
ec    23300  23.3           0.001          295.97886     -4296.5483      38.220012      1646.1975      20061.416    
ec    23400  23.4           0.001          291.03253     -4296.7093      37.581288     -1857.7744      20133.965    
ec    23500  23.5           0.001          280.69004     -4297.2184      36.245753      1168.0217      20069.296    
ec    23600  23.6           0.001          285.38656     -4298.4333      36.852219     -337.66157      20096.533    
ec    23700  23.7           0.001          290.3733      -4296.4364      37.496162     -1321.9491      20118.617    
ec    23800  23.8           0.001          291.72538     -4295.3723      37.670757      1556.9807      20060.834    
ec    23900  23.9           0.001          294.98998     -4295.99        38.092317     -2186.2689      20138.618    
ec    24000  24             0.001          295.80063     -4297.3807      38.196997      1020.3189      20074.834    
ec    24100  24.1           0.001          297.40395     -4298.9407      38.404036      330.53273      20084.273    
ec    24200  24.2           0.001          297.84261     -4298.4335      38.460679     -2223.2549      20138.374    
ec    24300  24.3           0.001          297.62598     -4295.3553      38.432707      2824.4163      20040.442    
ec    24400  24.4           0.001          309.59081     -4296.5711      39.977735     -2346.1325      20143.49     
ec    24500  24.5           0.001          285.95284     -4295.454       36.925343      102.42182      20090.792    
ec    24600  24.6           0.001          295.82572     -4297.6611      38.200237      1519.7814      20063.181    
ec    24700  24.7           0.001          289.08161     -4296.7744      37.329364     -2954.2115      20153.593    
ec    24800  24.8           0.001          296.57881     -4296.8954      38.297485      2749.3811      20038.676    
ec    24900  24.9           0.001          313.39984     -4296.2439      40.469599     -1644.8892      20132.649    
ec    25000  25             0.001          316.36423     -4297.3167      40.852393     -229.46102      20103.258    
ec    25100  25.1           0.001          304.63581     -4297.5751      39.337892      2091.0804      20053.206    
ec    25200  25.2           0.001          299.87929     -4297.8682      38.723679     -3108.0814      20157.708    
ec    25300  25.3           0.001          307.90895     -4299.0198      39.760555      2746.4158      20040.634    
ec    25400  25.4           0.001          297.52889     -4297.1137      38.420169     -1152.887       20116.859    
ec    25500  25.5           0.001          307.98592     -4295.8001      39.770495     -1282.1229      20124.095    
ec    25600  25.6           0.001          296.38044     -4293.8358      38.271869      2920.2782      20040.088    
ec    25700  25.7           0.001          291.1339      -4295.2107      37.594378     -3240.0443      20160.982    
ec    25800  25.8           0.001          299.39993     -4297.3758      38.661778      1775.5768      20059.206    
ec    25900  25.9           0.001          314.0114      -4299.3917      40.54857       174.98466      20094.338    
ec    26000  26             0.001          293.8735      -4297.3149      37.948145     -1512.2045      20124.902    
ec    26100  26.1           0.001          300.90682     -4297.5971      38.856364      2140.4692      20054.401    
ec    26200  26.2           0.001          310.96216     -4297.3115      40.154819     -1634.4868      20130.756    
ec    26300  26.3           0.001          316.47558     -4297.2089      40.866772      681.16146      20083.931    
ec    26400  26.4           0.001          298.88963     -4296.5538      38.595883      238.2631       20090.017    
ec    26500  26.5           0.001          294.21962     -4297.9593      37.99284      -1175.4999      20118.603    
ec    26600  26.6           0.001          297.08307     -4297.9992      38.362599      1700.869       20062.035    
ec    26700  26.7           0.001          294.0652      -4296.7083      37.9729       -1309.5025      20120.583    
ec    26800  26.8           0.001          305.54312     -4296.7279      39.455053      251.98048      20090.666    
ec    26900  26.9           0.001          314.85618     -4295.6494      40.657658      638.37532      20085.432    
ec    27000  27             0.001          318.06106     -4296.8625      41.071506     -1242.8036      20123.677    
ec    27100  27.1           0.001          300.64088     -4297.6319      38.822023      1294.6194      20071.236    
ec    27200  27.2           0.001          297.27441     -4297.9102      38.387308     -380.47056      20101.981    
ec    27300  27.3           0.001          290.3034      -4297.0621      37.487135     -625.15374      20103.189    
ec    27400  27.4           0.001          299.75316     -4296.9165      38.70739       474.3736       20084.966    
ec    27500  27.5           0.001          317.20986     -4297.829       40.96159      -481.22216      20109.05     
ec    27600  27.6           0.001          304.96659     -4296.0892      39.380606      608.61485      20085.442    
ec    27700  27.7           0.001          289.29595     -4296.4714      37.357042     -372.20019      20099.943    
ec    27800  27.8           0.001          290.32449     -4297.7401      37.489858     -328.43585      20100.743    
ec    27900  27.9           0.001          296.25271     -4298.1349      38.255375      662.08644      20080.25     
ec    28000  28             0.001          297.68789     -4296.2833      38.4407       -937.12093      20115.518    
ec    28100  28.1           0.001          311.3807      -4297.0255      40.208866      922.48473      20080.751    
ec    28200  28.2           0.001          305.38974     -4297.0037      39.435247     -67.345775      20097.668    
ec    28300  28.3           0.001          292.41743     -4296.0563      37.760121     -843.97848      20111.474    
ec    28400  28.4           0.001          295.26965     -4296.9177      38.128431      1059.9185      20075.513    
ec    28500  28.5           0.001          293.26675     -4297.4389      37.869795     -792.1306       20108.634    
ec    28600  28.6           0.001          291.10516     -4296.575       37.590667      37.017605      20094.668    
ec    28700  28.7           0.001          311.80708     -4297.2977      40.263925      609.64478      20085.496    
ec    28800  28.8           0.001          309.69541     -4296.199       39.991243     -832.15872      20114.94     
ec    28900  28.9           0.001          290.81222     -4295.491       37.55284       939.74887      20078.111    
ec    29000  29             0.001          303.6252      -4298.7805      39.207391     -641.81705      20107.397    
ec    29100  29.1           0.001          315.27713     -4300.0306      40.712014      197.30622      20093.464    
ec    29200  29.2           0.001          313.76948     -4299.3535      40.517331      806.08252      20078.576    
ec    29300  29.3           0.001          301.17516     -4296.4521      38.891015     -1459.5604      20124.897    
ec    29400  29.4           0.001          298.32479     -4293.9025      38.522944      1449.2901      20068.661    
ec    29500  29.5           0.001          304.51155     -4295.7204      39.321847     -1122.895       20118.391    
ec    29600  29.6           0.001          298.75091     -4297.3712      38.577969     -462.17054      20104.997    
ec    29700  29.7           0.001          308.84807     -4298.7276      39.881824      2252.6439      20050.157    
ec    29800  29.8           0.001          294.70404     -4296.9115      38.055394     -3328.0188      20158.917    
ec    29900  29.9           0.001          293.37189     -4296.3586      37.883371      2262.9018      20048.799    
Fix halt condition for fix-id myhalt met on step 30000 with value 30 (../fix_halt.cpp:240)
ec    30000  30             0.001          291.49046     -4295.6431      37.640422     -635.84831      20106.348    
Loop time of 14.6629 on 2 procs for 30000 steps with 1000 atoms

Performance: 176.773 ns/day, 0.136 hours/ns, 2045.986 timesteps/s, 2.046 Matom-step/s
98.6% CPU use with 2 MPI tasks x no OpenMP threads

MPI task timing breakdown:
Section |  min time  |  avg time  |  max time  |%varavg| %total
---------------------------------------------------------------
Pair    | 13.368     | 13.388     | 13.408     |   0.6 | 91.31
Neigh   | 0          | 0          | 0          |   0.0 |  0.00
Comm    | 0.7356     | 0.75418    | 0.77276    |   2.1 |  5.14
Output  | 0.0040912  | 0.0076997  | 0.011308   |   4.1 |  0.05
Modify  | 0.42322    | 0.4286     | 0.43398    |   0.8 |  2.92
Other   |            | 0.0844     |            |       |  0.58

Nlocal:            500 ave         500 max         500 min
Histogram: 2 0 0 0 0 0 0 0 0 0
Nghost:           1507 ave        1507 max        1507 min
Histogram: 2 0 0 0 0 0 0 0 0 0
Neighs:              0 ave           0 max           0 min
Histogram: 2 0 0 0 0 0 0 0 0 0
FullNghs:        17000 ave       17000 max       17000 min
Histogram: 2 0 0 0 0 0 0 0 0 0

Total # of neighbors = 34000
Ave neighs/atom = 34
Neighbor list builds = 0
Dangerous builds = 0

unfix myhalt

fix myhalt all halt 100 v_t >= 60.0 error continue

unfix NPT

fix NVT all nvt temp ${temp} ${temp} ${tau_T}
fix NVT all nvt temp 300 ${temp} ${tau_T}
fix NVT all nvt temp 300 300 ${tau_T}
fix NVT all nvt temp 300 300 0.1

run 10000000
Per MPI rank memory allocation (min/avg/max) = 3.639 | 3.639 | 3.639 Mbytes
   Step          Time            Dt            Temp          PotEng         KinEng         Press          Volume    
ec    30000  30             0.001          291.49046     -4295.6431      37.640422     -635.84831      20106.348    
ec    30100  30.1           0.001          291.65811     -4295.851       37.66207      -513.85609      20106.348    
ec    30200  30.2           0.001          278.20044     -4296.0921      35.924268     -785.75217      20106.348    
ec    30300  30.3           0.001          276.483       -4297.0457      35.702494     -798.02964      20106.348    
ec    30400  30.4           0.001          285.74646     -4297.1922      36.898693     -879.19853      20106.348    
ec    30500  30.5           0.001          291.97213     -4295.4054      37.70262      -687.85049      20106.348    
ec    30600  30.6           0.001          299.02799     -4296.3817      38.613749     -523.26993      20106.348    
ec    30700  30.7           0.001          280.47382     -4295.2599      36.217833     -723.55812      20106.348    
ec    30800  30.8           0.001          283.74148     -4296.5978      36.639788     -719.24228      20106.348    
ec    30900  30.9           0.001          286.50182     -4296.9744      36.996234     -678.49472      20106.348    
ec    31000  31             0.001          297.71143     -4296.8406      38.44374      -680.04683      20106.348    
ec    31100  31.1           0.001          316.3087      -4297.6787      40.845222     -550.52135      20106.348    
ec    31200  31.2           0.001          290.82227     -4295.2055      37.554137     -560.26211      20106.348    
ec    31300  31.3           0.001          277.32459     -4295.2182      35.811169     -646.15022      20106.348    
ec    31400  31.4           0.001          280.25169     -4296.4978      36.189148     -651.58239      20106.348    
ec    31500  31.5           0.001          293.11395     -4297.686       37.850064     -609.16036      20106.348    
ec    31600  31.6           0.001          311.19866     -4299.3249      40.185358     -564.87343      20106.348    
ec    31700  31.7           0.001          299.31998     -4297.2671      38.651454     -665.26603      20106.348    
ec    31800  31.8           0.001          310.49309     -4297.7968      40.094247     -474.22306      20106.348    
ec    31900  31.9           0.001          312.36126     -4296.879       40.335485     -481.36659      20106.348    
ec    32000  32             0.001          301.05587     -4294.9342      38.875611     -441.85027      20106.348    
ec    32100  32.1           0.001          299.84809     -4296.9511      38.719649     -485.33915      20106.348    
ec    32200  32.2           0.001          307.08824     -4299.1214      39.654576     -622.87615      20106.348    
ec    32300  32.3           0.001          300.49025     -4298.4506      38.802572     -665.29491      20106.348    
ec    32400  32.4           0.001          277.99965     -4294.6014      35.898341     -704.62189      20106.348    
ec    32500  32.5           0.001          301.18262     -4295.3486      38.891978     -448.91878      20106.348    
ec    32600  32.6           0.001          311.34575     -4296.6584      40.204352     -444.03512      20106.348    
ec    32700  32.7           0.001          296.00337     -4296.457       38.223177     -648.48172      20106.348    
ec    32800  32.8           0.001          302.38996     -4297.7891      39.047883     -621.86341      20106.348    
ec    32900  32.9           0.001          288.8848      -4296.5423      37.30395      -765.90098      20106.348    
ec    33000  33             0.001          286.80992     -4295.9961      37.036019     -640.1734       20106.348    
ec    33100  33.1           0.001          305.14617     -4297.042       39.403795     -484.04704      20106.348    
ec    33200  33.2           0.001          319.789       -4297.3316      41.294637     -478.24142      20106.348    
ec    33300  33.3           0.001          290.53865     -4293.9055      37.517513     -662.22835      20106.348    
ec    33400  33.4           0.001          281.53286     -4295.7571      36.354587     -738.51844      20106.348    
ec    33500  33.5           0.001          281.15279     -4295.9945      36.305509     -677.36873      20106.348    
ec    33600  33.6           0.001          287.61986     -4296.1371      37.140607     -653.83156      20106.348    
ec    33700  33.7           0.001          293.71163     -4295.7012      37.927242     -536.56744      20106.348    
ec    33800  33.8           0.001          311.7633      -4296.7738      40.258271     -390.54037      20106.348    
ec    33900  33.9           0.001          299.07769     -4295.8791      38.620167     -503.45517      20106.348    
ec    34000  34             0.001          281.30213     -4296.3682      36.324794     -625.3067       20106.348    
ec    34100  34.1           0.001          309.79341     -4300.2117      40.003897     -566.19305      20106.348    
ec    34200  34.2           0.001          310.63153     -4298.999       40.112124     -487.53478      20106.348    
ec    34300  34.3           0.001          306.44718     -4297.0179      39.571795     -408.25087      20106.348    
ec    34400  34.4           0.001          306.75941     -4297.1364      39.612114     -410.07583      20106.348    
ec    34500  34.5           0.001          296.55377     -4296.4201      38.29425      -451.18518      20106.348    
ec    34600  34.6           0.001          305.61564     -4298.0473      39.464418     -413.932        20106.348    
ec    34700  34.7           0.001          314.99878     -4299.1143      40.676072     -279.77472      20106.348    
ec    34800  34.8           0.001          315.48233     -4299.267       40.738513     -423.54711      20106.348    
ec    34900  34.9           0.001          299.01506     -4297.7676      38.61208      -612.70679      20106.348    
ec    35000  35             0.001          294.0828      -4298.0148      37.975172     -545.38992      20106.348    
ec    35100  35.1           0.001          301.14395     -4299.2994      38.886985     -519.48431      20106.348    
ec    35200  35.2           0.001          295.2341      -4297.274       38.123841     -609.34676      20106.348    
ec    35300  35.3           0.001          301.90336     -4296.2745      38.985048     -452.18736      20106.348    
ec    35400  35.4           0.001          307.39575     -4297.2631      39.694285     -585.97176      20106.348    
ec    35500  35.5           0.001          297.68235     -4297.3053      38.439985     -629.23603      20106.348    
ec    35600  35.6           0.001          286.86597     -4298.1165      37.043256     -707.2268       20106.348    
ec    35700  35.7           0.001          293.14079     -4299.1453      37.85353      -720.38002      20106.348    
ec    35800  35.8           0.001          291.93169     -4297.9534      37.697398     -699.45393      20106.348    
ec    35900  35.9           0.001          290.87112     -4296.8824      37.560445     -546.69365      20106.348    
ec    36000  36             0.001          284.3661      -4294.7091      36.720446     -543.18077      20106.348    
ec    36100  36.1           0.001          296.13741     -4295.634       38.240486     -604.90914      20106.348    
ec    36200  36.2           0.001          302.41035     -4297.0379      39.050516     -656.8969       20106.348    
ec    36300  36.3           0.001          299.12448     -4299.0041      38.626208     -648.49617      20106.348    
ec    36400  36.4           0.001          294.19569     -4298.7725      37.98975      -653.38593      20106.348    
ec    36500  36.5           0.001          283.52332     -4296.3687      36.611617     -707.44197      20106.348    
ec    36600  36.6           0.001          297.02644     -4297.0917      38.355287     -556.72278      20106.348    
ec    36700  36.7           0.001          307.39954     -4297.8671      39.694775     -488.95089      20106.348    
ec    36800  36.8           0.001          308.81645     -4298.175       39.877742     -444.7575       20106.348    
ec    36900  36.9           0.001          299.70707     -4297.5816      38.701439     -567.86436      20106.348    
ec    37000  37             0.001          298.92367     -4298.7672      38.600278     -611.28108      20106.348    
ec    37100  37.1           0.001          282.19659     -4298.2606      36.440296     -715.24686      20106.348    
ec    37200  37.2           0.001          301.57822     -4299.2925      38.943063     -567.76975      20106.348    
ec    37300  37.3           0.001          303.51201     -4297.6909      39.192774     -516.91085      20106.348    
ec    37400  37.4           0.001          299.05305     -4296.489       38.616985     -556.02243      20106.348    
ec    37500  37.5           0.001          296.23579     -4296.0938      38.25319      -485.38038      20106.348    
ec    37600  37.6           0.001          301.01009     -4298.7007      38.869699     -524.23547      20106.348    
ec    37700  37.7           0.001          289.9704      -4298.9054      37.444134     -744.35253      20106.348    
ec    37800  37.8           0.001          285.88739     -4297.4188      36.916891     -641.59654      20106.348    
ec    37900  37.9           0.001          296.87678     -4297.4088      38.335961     -504.82662      20106.348    
ec    38000  38             0.001          307.62008     -4298.091       39.723253     -504.1581       20106.348    
ec    38100  38.1           0.001          284.34221     -4295.0894      36.717361     -650.01944      20106.348    
ec    38200  38.2           0.001          295.77094     -4296.6764      38.193163     -648.50774      20106.348    
ec    38300  38.3           0.001          283.41478     -4296.7512      36.597601     -864.12832      20106.348    
ec    38400  38.4           0.001          284.88364     -4297.8516      36.787277     -770.95406      20106.348    
ec    38500  38.5           0.001          291.36876     -4297.3542      37.624706     -665.38225      20106.348    
ec    38600  38.6           0.001          296.84653     -4296.1579      38.332055     -638.31999      20106.348    
ec    38700  38.7           0.001          297.81305     -4296.014       38.456862     -611.92979      20106.348    
ec    38800  38.8           0.001          299.7301      -4297.0952      38.704413     -629.34766      20106.348    
ec    38900  38.9           0.001          283.79383     -4295.8046      36.646549     -665.22974      20106.348    
ec    39000  39             0.001          296.68166     -4297.9514      38.310765     -846.64066      20106.348    
ec    39100  39.1           0.001          288.13025     -4298.2101      37.206514     -742.06342      20106.348    
ec    39200  39.2           0.001          284.90849     -4297.882       36.790485     -687.3773       20106.348    
ec    39300  39.3           0.001          286.73904     -4296.1698      37.026865     -608.88417      20106.348    
ec    39400  39.4           0.001          300.21923     -4296.457       38.767574     -581.35145      20106.348    
ec    39500  39.5           0.001          317.61202     -4298.4389      41.013521     -496.63158      20106.348    
ec    39600  39.6           0.001          297.67304     -4297.537       38.438783     -662.13529      20106.348    
ec    39700  39.7           0.001          306.6061      -4300.2988      39.592317     -494.46087      20106.348    
ec    39800  39.8           0.001          297.70096     -4299.0511      38.442388     -596.45104      20106.348    
ec    39900  39.9           0.001          301.09723     -4298.4626      38.880951     -536.36785      20106.348    
ec    40000  40             0.001          291.07911     -4296.6532      37.587302     -524.78999      20106.348    
ec    40100  40.1           0.001          299.27313     -4296.8211      38.645405     -420.56072      20106.348    
ec    40200  40.2           0.001          312.44121     -4297.9337      40.34581      -491.46124      20106.348    
ec    40300  40.3           0.001          304.76638     -4297.1778      39.354752     -599.88406      20106.348    
ec    40400  40.4           0.001          312.12343     -4299.8709      40.304774     -507.99406      20106.348    
ec    40500  40.5           0.001          287.37321     -4298.099       37.108757     -618.95919      20106.348    
ec    40600  40.6           0.001          286.25792     -4297.0683      36.964739     -609.3229       20106.348    
ec    40700  40.7           0.001          305.52995     -4297.6201      39.453352     -472.40775      20106.348    
ec    40800  40.8           0.001          305.4845      -4297.5278      39.447484     -595.32774      20106.348    
ec    40900  40.9           0.001          302.61214     -4297.4202      39.076573     -577.54609      20106.348    
ec    41000  41             0.001          289.45617     -4296.7663      37.377732     -576.23636      20106.348    
ec    41100  41.1           0.001          286.80406     -4298.125       37.035263     -671.99775      20106.348    
ec    41200  41.2           0.001          283.36588     -4297.4951      36.591287     -703.25913      20106.348    
ec    41300  41.3           0.001          290.04639     -4295.4615      37.453946     -516.13597      20106.348    
ec    41400  41.4           0.001          311.59192     -4297.2844      40.236141     -483.00307      20106.348    
ec    41500  41.5           0.001          301.52055     -4296.9671      38.935616     -606.72275      20106.348    
ec    41600  41.6           0.001          294.9478      -4297.615       38.086871     -585.7366       20106.348    
ec    41700  41.7           0.001          297.16117     -4298.4056      38.372685     -588.69482      20106.348    
ec    41800  41.8           0.001          306.2543      -4298.3378      39.546889     -579.68684      20106.348    
ec    41900  41.9           0.001          299.94362     -4294.9191      38.731985     -503.36245      20106.348    
ec    42000  42             0.001          316.75447     -4297.6097      40.902785     -413.96797      20106.348    
ec    42100  42.1           0.001          306.7144      -4298.3586      39.606301     -574.66106      20106.348    
ec    42200  42.2           0.001          290.85135     -4297.2103      37.557892     -573.8534       20106.348    
ec    42300  42.3           0.001          296.36187     -4297.759       38.26947      -609.21922      20106.348    
ec    42400  42.4           0.001          308.07987     -4297.1939      39.782626     -467.53671      20106.348    
ec    42500  42.5           0.001          312.33381     -4295.979       40.331941     -431.77967      20106.348    
ec    42600  42.6           0.001          311.69864     -4296.7518      40.249921     -407.51137      20106.348    
ec    42700  42.7           0.001          310.27352     -4297.992       40.065894     -501.4834       20106.348    
ec    42800  42.8           0.001          297.25656     -4297.4075      38.385002     -664.71994      20106.348    
ec    42900  42.9           0.001          293.2362      -4297.0583      37.86585      -476.50805      20106.348    
ec    43000  43             0.001          300.68806     -4298.1105      38.828115     -501.09316      20106.348    
ec    43100  43.1           0.001          303.50689     -4297.6039      39.192114     -658.22793      20106.348    
ec    43200  43.2           0.001          308.6331      -4297.009       39.854065     -612.9716       20106.348    
ec    43300  43.3           0.001          292.07261     -4295.1747      37.715594     -559.71202      20106.348    
ec    43400  43.4           0.001          286.52985     -4296.3891      36.999854     -680.17195      20106.348    
ec    43500  43.5           0.001          286.10793     -4297.5912      36.94537      -597.23034      20106.348    
ec    43600  43.6           0.001          299.87777     -4298.6957      38.723482     -582.93663      20106.348    
ec    43700  43.7           0.001          296.10337     -4297.2741      38.236091     -577.8134       20106.348    
ec    43800  43.8           0.001          295.60975     -4296.892       38.172349     -652.76427      20106.348    
ec    43900  43.9           0.001          288.43384     -4295.5748      37.245717     -659.8653       20106.348    
ec    44000  44             0.001          296.45854     -4296.6321      38.281954     -670.52212      20106.348    
ec    44100  44.1           0.001          294.51828     -4296.9528      38.031406     -587.4862       20106.348    
ec    44200  44.2           0.001          304.0243      -4299.2697      39.258927     -531.89531      20106.348    
ec    44300  44.3           0.001          291.48697     -4297.9592      37.639971     -701.0975       20106.348    
ec    44400  44.4           0.001          290.22784     -4296.1225      37.477377     -668.15772      20106.348    
ec    44500  44.5           0.001          304.34733     -4296.2514      39.30064      -494.97218      20106.348    
ec    44600  44.6           0.001          309.27622     -4297.156       39.937112     -498.7516       20106.348    
ec    44700  44.7           0.001          310.15892     -4298.5603      40.051096     -534.09962      20106.348    
ec    44800  44.8           0.001          281.32245     -4295.3486      36.327417     -644.56547      20106.348    
ec    44900  44.9           0.001          291.75208     -4296.6662      37.674204     -626.81602      20106.348    
ec    45000  45             0.001          286.80786     -4295.9753      37.035752     -725.48399      20106.348    
ec    45100  45.1           0.001          304.33343     -4297.1336      39.298844     -606.19845      20106.348    
ec    45200  45.2           0.001          311.32524     -4295.804       40.201703     -481.25183      20106.348    
ec    45300  45.3           0.001          302.98693     -4295.0535      39.12497      -593.63132      20106.348    
ec    45400  45.4           0.001          300.02563     -4297.3231      38.742575     -564.31775      20106.348    
ec    45500  45.5           0.001          294.16848     -4297.2693      37.986236     -638.23289      20106.348    
ec    45600  45.6           0.001          290.50681     -4296.5119      37.513402     -617.14296      20106.348    
ec    45700  45.7           0.001          299.39113     -4296.8046      38.660641     -570.58675      20106.348    
ec    45800  45.8           0.001          306.27505     -4296.6593      39.549568     -444.25345      20106.348    
ec    45900  45.9           0.001          296.48758     -4294.778       38.285703     -363.93284      20106.348    
ec    46000  46             0.001          303.95638     -4297.2737      39.250156     -508.16367      20106.348    
ec    46100  46.1           0.001          310.46648     -4300.0012      40.090812     -588.48322      20106.348    
ec    46200  46.2           0.001          300.61358     -4298.7964      38.818497     -526.22281      20106.348    
ec    46300  46.3           0.001          298.88563     -4297.1582      38.595366     -428.79688      20106.348    
ec    46400  46.4           0.001          303.343       -4295.8237      39.170951     -341.96494      20106.348    
ec    46500  46.5           0.001          309.8839      -4296.8955      40.015582     -463.17691      20106.348    
ec    46600  46.6           0.001          318.14285     -4298.8301      41.082067     -416.06413      20106.348    
ec    46700  46.7           0.001          307.52538     -4298.6068      39.711024     -406.8108       20106.348    
ec    46800  46.8           0.001          291.82799     -4297.2223      37.684006     -475.0544       20106.348    
ec    46900  46.9           0.001          290.96713     -4296.9992      37.572843     -590.37177      20106.348    
ec    47000  47             0.001          304.87458     -4296.8614      39.368724     -460.61481      20106.348    
ec    47100  47.1           0.001          310.1647      -4296.1338      40.051842     -317.41816      20106.348    
ec    47200  47.2           0.001          306.84426     -4297.1775      39.62307      -494.73649      20106.348    
ec    47300  47.3           0.001          311.19831     -4299.2714      40.185313     -538.36917      20106.348    
ec    47400  47.4           0.001          302.70907     -4298.4154      39.08909      -582.61522      20106.348    
ec    47500  47.5           0.001          299.25503     -4297.727       38.643066     -590.76937      20106.348    
ec    47600  47.6           0.001          310.07648     -4297.7535      40.040451     -490.97285      20106.348    
ec    47700  47.7           0.001          313.50889     -4295.5939      40.48368      -364.43577      20106.348    
ec    47800  47.8           0.001          313.16878     -4295.5672      40.439762     -380.78364      20106.348    
ec    47900  47.9           0.001          304.52902     -4296.6929      39.324101     -372.46814      20106.348    
ec    48000  48             0.001          298.57342     -4296.7231      38.55505      -493.35909      20106.348    
ec    48100  48.1           0.001          291.29327     -4296.7188      37.614958     -584.2749       20106.348    
ec    48200  48.2           0.001          284.18979     -4296.6849      36.697679     -616.91662      20106.348    
ec    48300  48.3           0.001          312.15725     -4299.9203      40.309141     -449.31512      20106.348    
ec    48400  48.4           0.001          313.50717     -4298.0261      40.483459     -502.55137      20106.348    
ec    48500  48.5           0.001          306.66126     -4295.9941      39.59944      -340.24299      20106.348    
ec    48600  48.6           0.001          311.98895     -4297.7287      40.287409     -413.42818      20106.348    
ec    48700  48.7           0.001          303.86785     -4298.1385      39.238724     -483.15892      20106.348    
ec    48800  48.8           0.001          305.21317     -4298.4301      39.412447     -466.58164      20106.348    
ec    48900  48.9           0.001          296.17757     -4297.1289      38.245671     -465.90962      20106.348    
ec    49000  49             0.001          297.08581     -4296.815       38.362954     -410.70746      20106.348    
ec    49100  49.1           0.001          321.41057     -4298.123       41.504031     -333.52683      20106.348    
ec    49200  49.2           0.001          318.3402      -4297.1097      41.107552     -277.36849      20106.348    
ec    49300  49.3           0.001          311.51853     -4298.37        40.226664     -363.45044      20106.348    
ec    49400  49.4           0.001          296.27312     -4298.2167      38.25801      -564.57165      20106.348    
ec    49500  49.5           0.001          311.12246     -4299.7455      40.175518     -486.30688      20106.348    
ec    49600  49.6           0.001          322.6324      -4299.6749      41.661807     -323.1283       20106.348    
ec    49700  49.7           0.001          318.84956     -4298.5468      41.173326     -387.13077      20106.348    
ec    49800  49.8           0.001          314.47609     -4298.3804      40.608576     -389.46071      20106.348    
ec    49900  49.9           0.001          294.73567     -4298.6627      38.059478     -519.21258      20106.348    
ec    50000  50             0.001          291.14595     -4298.5233      37.595934     -635.70778      20106.348    
ec    50100  50.1           0.001          295.24817     -4297.2877      38.125658     -577.89711      20106.348    
ec    50200  50.2           0.001          299.04362     -4296.4082      38.615767     -341.20107      20106.348    
ec    50300  50.3           0.001          302.0583      -4296.8082      39.005055     -463.9382       20106.348    
ec    50400  50.4           0.001          298.38382     -4297.1181      38.530567     -534.52334      20106.348    
ec    50500  50.5           0.001          281.04309     -4296.5087      36.291343     -676.18354      20106.348    
ec    50600  50.6           0.001          277.36195     -4298.7563      35.815993     -811.55298      20106.348    
ec    50700  50.7           0.001          284.24629     -4298.6148      36.704975     -836.89036      20106.348    
ec    50800  50.8           0.001          299.33194     -4298.5812      38.652999     -515.53893      20106.348    
ec    50900  50.9           0.001          286.29325     -4295.6888      36.969301     -605.95219      20106.348    
ec    51000  51             0.001          299.50628     -4296.2445      38.675511     -540.13431      20106.348    
ec    51100  51.1           0.001          304.65379     -4296.8906      39.340213     -501.06984      20106.348    
ec    51200  51.2           0.001          282.25337     -4296.3989      36.447627     -594.06442      20106.348    
ec    51300  51.3           0.001          283.77783     -4297.6506      36.644482     -600.68809      20106.348    
ec    51400  51.4           0.001          295.82337     -4298.4202      38.199934     -602.55056      20106.348    
ec    51500  51.5           0.001          303.13281     -4297.9375      39.143808     -482.65228      20106.348    
ec    51600  51.6           0.001          303.85413     -4297.5798      39.236952     -446.20194      20106.348    
ec    51700  51.7           0.001          300.11677     -4297.159       38.754344     -463.98886      20106.348    
ec    51800  51.8           0.001          304.54824     -4297.8541      39.326584     -395.38705      20106.348    
ec    51900  51.9           0.001          308.84588     -4299.4835      39.881542     -529.94244      20106.348    
ec    52000  52             0.001          292.97122     -4298.6067      37.831632     -615.6717       20106.348    
ec    52100  52.1           0.001          302.10842     -4298.9703      39.011528     -491.04011      20106.348    
ec    52200  52.2           0.001          299.16662     -4296.5172      38.63165      -459.45702      20106.348    
ec    52300  52.3           0.001          309.70206     -4297.1804      39.992101     -315.48309      20106.348    
ec    52400  52.4           0.001          314.37782     -4298.5242      40.595886     -374.6162       20106.348    
ec    52500  52.5           0.001          301.35392     -4297.6559      38.914098     -499.25491      20106.348    
ec    52600  52.6           0.001          287.73519     -4296.3901      37.1555       -593.45155      20106.348    
ec    52700  52.7           0.001          295.2914      -4297.1342      38.13124      -546.05462      20106.348    
ec    52800  52.8           0.001          297.83231     -4297.2665      38.459349     -509.82304      20106.348    
ec    52900  52.9           0.001          294.32782     -4296.6414      38.006812     -617.5756       20106.348    
ec    53000  53             0.001          304.14272     -4296.8975      39.274218     -536.25966      20106.348    
ec    53100  53.1           0.001          304.95435     -4295.6403      39.379026     -420.24237      20106.348    
ec    53200  53.2           0.001          299.22061     -4295.6348      38.638622     -601.11681      20106.348    
ec    53300  53.3           0.001          299.24226     -4298.0621      38.641418     -518.09049      20106.348    
ec    53400  53.4           0.001          287.27037     -4297.1389      37.095477     -640.19381      20106.348    
ec    53500  53.5           0.001          285.15864     -4295.9801      36.822787     -639.7538       20106.348    
ec    53600  53.6           0.001          304.46164     -4297.2912      39.315401     -569.26484      20106.348    
ec    53700  53.7           0.001          306.08639     -4296.6143      39.525206     -478.09913      20106.348    
ec    53800  53.8           0.001          303.84243     -4294.79        39.235442     -411.57369      20106.348    
ec    53900  53.9           0.001          294.90556     -4294.1792      38.081416     -490.54477      20106.348    
ec    54000  54             0.001          306.86914     -4297.9666      39.626284     -376.57504      20106.348    
ec    54100  54.1           0.001          298.00487     -4298.0458      38.481633     -605.54741      20106.348    
ec    54200  54.2           0.001          293.12348     -4297.3644      37.851295     -536.53398      20106.348    
ec    54300  54.3           0.001          303.72659     -4297.2778      39.220483     -444.26256      20106.348    
ec    54400  54.4           0.001          313.68494     -4296.289       40.506413     -430.88468      20106.348    
ec    54500  54.5           0.001          318.76395     -4297.2517      41.162271     -407.18924      20106.348    
ec    54600  54.6           0.001          306.5753      -4297.0432      39.58834      -341.52963      20106.348    
ec    54700  54.7           0.001          296.48872     -4296.5289      38.285851     -414.0493       20106.348    
ec    54800  54.8           0.001          290.77615     -4296.824       37.548181     -590.65872      20106.348    
ec    54900  54.9           0.001          305.56676     -4299.4532      39.458106     -534.29956      20106.348    
ec    55000  55             0.001          297.75565     -4297.8629      38.449451     -479.06105      20106.348    
ec    55100  55.1           0.001          306.4787      -4296.7514      39.575866     -524.24727      20106.348    
ec    55200  55.2           0.001          310.26223     -4296.2816      40.064437     -328.20002      20106.348    
ec    55300  55.3           0.001          307.42151     -4297.3764      39.697612     -493.68526      20106.348    
ec    55400  55.4           0.001          299.29553     -4297.5056      38.648296     -595.07314      20106.348    
ec    55500  55.5           0.001          299.80709     -4297.6305      38.714355     -558.32246      20106.348    
ec    55600  55.6           0.001          304.069       -4298.1773      39.264699     -548.62235      20106.348    
ec    55700  55.7           0.001          300.19168     -4297.3548      38.764017     -591.69766      20106.348    
ec    55800  55.8           0.001          311.09709     -4297.1113      40.172242     -431.29296      20106.348    
ec    55900  55.9           0.001          303.04563     -4295.5857      39.13255      -413.68817      20106.348    
ec    56000  56             0.001          301.44191     -4297.1681      38.92546      -604.42536      20106.348    
ec    56100  56.1           0.001          289.80179     -4297.5703      37.422362     -696.23075      20106.348    
ec    56200  56.2           0.001          296.25122     -4298.031       38.255182     -508.10363      20106.348    
ec    56300  56.3           0.001          302.1764      -4297.6671      39.020306     -561.89081      20106.348    
ec    56400  56.4           0.001          305.62444     -4297.0058      39.465555     -617.46041      20106.348    
ec    56500  56.5           0.001          311.53268     -4296.5468      40.228491     -429.83308      20106.348    
ec    56600  56.6           0.001          312.78824     -4295.4336      40.390623     -358.31877      20106.348    
ec    56700  56.7           0.001          309.53758     -4296.7156      39.970861     -425.70909      20106.348    
ec    56800  56.8           0.001          293.86827     -4296.955       37.94747      -555.98439      20106.348    
ec    56900  56.9           0.001          298.89024     -4298.1167      38.595962     -587.80389      20106.348    
ec    57000  57             0.001          296.32154     -4297.4686      38.264263     -613.48974      20106.348    
ec    57100  57.1           0.001          308.75314     -4297.447       39.869566     -429.05227      20106.348    
ec    57200  57.2           0.001          324.43458     -4297.7429      41.894525     -355.08526      20106.348    
ec    57300  57.3           0.001          300.97619     -4295.8661      38.865322     -502.88027      20106.348    
ec    57400  57.4           0.001          292.70032     -4296.9874      37.796651     -466.2107       20106.348    
ec    57500  57.5           0.001          307.12632     -4298.8513      39.659493     -413.11539      20106.348    
ec    57600  57.6           0.001          309.27748     -4299.0282      39.937275     -607.04478      20106.348    
ec    57700  57.7           0.001          302.955       -4296.9575      39.120847     -509.00424      20106.348    
ec    57800  57.8           0.001          316.28284     -4297.45        40.841883     -468.99296      20106.348    
ec    57900  57.9           0.001          302.8489      -4295.797       39.107146     -466.46872      20106.348    
ec    58000  58             0.001          300.96438     -4298.0001      38.863797     -523.60414      20106.348    
ec    58100  58.1           0.001          300.40971     -4299.0856      38.792171     -613.38343      20106.348    
ec    58200  58.2           0.001          293.66594     -4297.54        37.921343     -604.20165      20106.348    
ec    58300  58.3           0.001          303.88519     -4297.0555      39.240964     -521.90752      20106.348    
ec    58400  58.4           0.001          298.01707     -4295.6571      38.483207     -531.84166      20106.348    
ec    58500  58.5           0.001          298.61682     -4296.3307      38.560654     -588.17768      20106.348    
ec    58600  58.6           0.001          293.16162     -4296.1356      37.85622      -685.14685      20106.348    
ec    58700  58.7           0.001          304.66291     -4297.9825      39.341392     -594.15842      20106.348    
ec    58800  58.8           0.001          283.07498     -4296.0047      36.553722     -628.8986       20106.348    
ec    58900  58.9           0.001          294.32937     -4298.0163      38.007012     -733.89815      20106.348    
ec    59000  59             0.001          298.58239     -4298.2098      38.556208     -671.06591      20106.348    
ec    59100  59.1           0.001          307.42048     -4297.5736      39.697479     -510.06211      20106.348    
ec    59200  59.2           0.001          303.52085     -4295.838       39.193916     -439.68525      20106.348    
ec    59300  59.3           0.001          300.91986     -4296.6935      38.858047     -626.60066      20106.348    
ec    59400  59.4           0.001          302.23641     -4298.5435      39.028055     -606.38815      20106.348    
ec    59500  59.5           0.001          293.77729     -4297.8454      37.935721     -731.98832      20106.348    
ec    59600  59.6           0.001          298.59186     -4297.8293      38.557431     -610.96596      20106.348    
ec    59700  59.7           0.001          303.44995     -4297.4717      39.184761     -550.49255      20106.348    
ec    59800  59.8           0.001          300.16017     -4296.5008      38.759949     -538.52502      20106.348    
ec    59900  59.9           0.001          289.1008      -4294.7898      37.331842     -556.43365      20106.348    
Fix halt condition for fix-id myhalt met on step 60000 with value 60 (../fix_halt.cpp:240)
ec    60000  60             0.001          302.58377     -4297.1009      39.072909     -515.53431      20106.348    
Loop time of 14.2424 on 2 procs for 30000 steps with 1000 atoms

Performance: 181.992 ns/day, 0.132 hours/ns, 2106.383 timesteps/s, 2.106 Matom-step/s
98.6% CPU use with 2 MPI tasks x no OpenMP threads

MPI task timing breakdown:
Section |  min time  |  avg time  |  max time  |%varavg| %total
---------------------------------------------------------------
Pair    | 13.119     | 13.213     | 13.307     |   2.6 | 92.77
Neigh   | 0          | 0          | 0          |   0.0 |  0.00
Comm    | 0.66168    | 0.75545    | 0.84923    |  10.8 |  5.30
Output  | 0.004006   | 0.0075341  | 0.011062   |   4.1 |  0.05
Modify  | 0.18292    | 0.18383    | 0.18475    |   0.2 |  1.29
Other   |            | 0.08293    |            |       |  0.58

Nlocal:            500 ave         506 max         494 min
Histogram: 1 0 0 0 0 0 0 0 0 1
Nghost:           1507 ave        1513 max        1501 min
Histogram: 1 0 0 0 0 0 0 0 0 1
Neighs:              0 ave           0 max           0 min
Histogram: 2 0 0 0 0 0 0 0 0 0
FullNghs:        17171 ave       17375 max       16967 min
Histogram: 1 0 0 0 0 0 0 0 0 1

Total # of neighbors = 34342
Ave neighs/atom = 34.342
Neighbor list builds = 0
Dangerous builds = 0

write_data cell.data_${temp}
write_data cell.data_300
System init for write_data ...
Total wall time: 0:00:28
