

units metal
timestep 0.001
boundary p p p

lattice         diamond 5.43
Lattice spacing in x,y,z = 5.43 5.43 5.43
region          box block 0 ${N} 0 ${N} 0 ${N}
region          box block 0 6 0 ${N} 0 ${N}
region          box block 0 6 0 6 0 ${N}
region          box block 0 6 0 6 0 6
create_box      1 box
Created orthogonal box = (0 0 0) to (32.58 32.58 32.58)
  1 by 1 by 2 MPI processor grid
create_atoms    1 box
Created 1728 atoms
  using lattice units in orthogonal box = (0 0 0) to (32.58 32.58 32.58)
  create_atoms CPU = 0.001 seconds

timestep ${dt}
timestep 0.001

mass 1 28.0855
labelmap atom 1 Si

pair_style sw
pair_coeff * * Si.sw Si
Reading sw potential file Si.sw with DATE: 2007-06-11


velocity all create ${temp} 4928459 mom yes rot yes dist gaussian
velocity all create 300 4928459 mom yes rot yes dist gaussian

variable t equal time
#fix myhalt all halt 100 v_t >= 30.0 error continue

#fix NVE all nve

#run 10000000

#unfix myhalt

compute 1 all vacf

thermo 100
thermo_style	custom step time dt temp pe ke press vol #c_1[4]
thermo_modify	line one flush yes format 1 "ec %8lu" flush yes


fix NPT all npt temp ${temp} ${temp} ${tau_T} iso 0.0 0.0 1.0
fix NPT all npt temp 300 ${temp} ${tau_T} iso 0.0 0.0 1.0
fix NPT all npt temp 300 300 ${tau_T} iso 0.0 0.0 1.0
fix NPT all npt temp 300 300 0.1 iso 0.0 0.0 1.0

fix myhalt all halt 100 v_t >= 30.0 error continue

run 10000000

CITE-CITE-CITE-CITE-CITE-CITE-CITE-CITE-CITE-CITE-CITE-CITE-CITE

Your simulation uses code contributions which should be cited:

- Type Label Framework: https://doi.org/10.1021/acs.jpcb.3c08419

@Article{Gissinger24,
 author = {Jacob R. Gissinger, Ilia Nikiforov, Yaser Afshar, Brendon Waters, Moon-ki Choi, Daniel S. Karls, Alexander Stukowski, Wonpil Im, Hendrik Heinz, Axel Kohlmeyer, and Ellad B. Tadmor},
 title = {Type Label Framework for Bonded Force Fields in LAMMPS},
 journal = {J. Phys. Chem. B},
 year =    2024,
 volume =  128,
 number =  13,
 pages =   {3282--3297}
}

CITE-CITE-CITE-CITE-CITE-CITE-CITE-CITE-CITE-CITE-CITE-CITE-CITE

Neighbor list info ...
  update: every = 1 steps, delay = 0 steps, check = yes
  max neighbors/atom: 2000, page size: 100000
  master list distance cutoff = 5.77118
  ghost atom cutoff = 5.77118
  binsize = 2.88559, bins = 12 12 12
  1 neighbor lists, perpetual/occasional/extra = 1 0 0
  (1) pair sw, perpetual
      attributes: full, newton on
      pair build: full/bin/atomonly
      stencil: full/bin/3d
      bin: standard
Per MPI rank memory allocation (min/avg/max) = 3.67 | 3.67 | 3.67 Mbytes
   Step          Time            Dt            Temp          PotEng         KinEng         Press          Volume    
ec        0  0              0.001          300           -7493.6418      66.969681      2601.0136      34582.25     
ec      100  0.1            0.001          156.86371     -7455.9131      35.017041     -1258.9996      34717.561    
ec      200  0.2            0.001          149.18995     -7444.9038      33.304011      396.68637      34668.405    
ec      300  0.3            0.001          212.86538     -7447.9017      47.518421      1063.6543      34650.129    
ec      400  0.4            0.001          250.16387     -7443.796       55.84465      -2013.6292      34764.781    
ec      500  0.5            0.001          250.15904     -7431.389       55.84357       1330.0434      34660.597    
ec      600  0.6            0.001          279.65469     -7426.5923      62.42795      -774.68996      34744.257    
ec      700  0.7            0.001          289.39051     -7420.2602      64.601301     -513.40102      34745.373    
ec      800  0.8            0.001          309.50386     -7421.2399      69.09125       978.27116      34693.263    
ec      900  0.9            0.001          313.76179     -7424.7569      70.041756     -1605.9101      34783.346    
ec     1000  1              0.001          294.73291     -7426.4217      65.793896      1281.4389      34681.2      
ec     1100  1.1            0.001          300.47217     -7430.9094      67.075084     -380.69477      34736.978    
ec     1200  1.2            0.001          298.18358     -7429.1458      66.564197     -387.83058      34737.466    
ec     1300  1.3            0.001          299.26657     -7425.2912      66.805957      1311.3266      34682.238    
ec     1400  1.4            0.001          337.43443     -7429.9143      75.326254     -888.5174       34771.586    
ec     1500  1.5            0.001          307.03633     -7423.9377      68.540416      1436.8182      34688.262    
ec     1600  1.6            0.001          298.86726     -7425.6351      66.716816     -269.31002      34736.7      
ec     1700  1.7            0.001          285.61247     -7425.9215      63.757919     -483.45127      34737.11     
ec     1800  1.8            0.001          286.82262     -7426.5118      64.028065      833.68671      34692.82     
ec     1900  1.9            0.001          297.33322     -7426.0722      66.37437      -1013.8359      34763.011    
ec     2000  2              0.001          309.72477     -7425.5467      69.140564      823.16574      34700.231    
ec     2100  2.1            0.001          297.48032     -7422.0909      66.407207     -403.56871      34738.515    
ec     2200  2.2            0.001          296.56877     -7424.2818      66.20372      -642.88887      34744.204    
ec     2300  2.3            0.001          295.40372     -7426.7425      65.943643      804.73099      34695.992    
ec     2400  2.4            0.001          294.88274     -7428.0035      65.827345     -846.0789       34748.894    
ec     2500  2.5            0.001          300.39522     -7427.6302      67.057908      145.80914      34717.198    
ec     2600  2.6            0.001          310.97453     -7426.9389      69.41955       429.2678       34716.655    
ec     2700  2.7            0.001          293.37026     -7421.6558      65.48971      -504.21395      34744.955    
ec     2800  2.8            0.001          298.98781     -7423.9679      66.743728      551.67151      34711.752    
ec     2900  2.9            0.001          288.57922     -7424.1429      64.420194      9.077313       34729.43     
ec     3000  3              0.001          318.88862     -7432.5237      71.186231      10.292937      34724.858    
ec     3100  3.1            0.001          312.36223     -7430.7303      69.72933       157.10396      34717.686    
ec     3200  3.2            0.001          312.09089     -7428.1628      69.668758      52.402896      34730.796    
ec     3300  3.3            0.001          315.10651     -7426.9702      70.341941      442.12369      34716.585    
ec     3400  3.4            0.001          293.08556     -7422.3926      65.426155     -18.884959      34731.359    
ec     3500  3.5            0.001          295.20224     -7424.8261      65.898665     -151.46353      34732.019    
ec     3600  3.6            0.001          295.91882     -7427.0055      66.058629      136.77171      34715.753    
ec     3700  3.7            0.001          311.22845     -7430.5707      69.476234     -476.55473      34737.988    
ec     3800  3.8            0.001          288.00098     -7423.6397      64.291112      563.632        34713.433    
ec     3900  3.9            0.001          290.58747     -7422.3387      64.8685        5.908857       34725.324    
ec     4000  4              0.001          309.33139     -7426.0043      69.052748     -656.23597      34743.163    
ec     4100  4.1            0.001          285.32554     -7421.9815      63.693868      207.45323      34714.084    
ec     4200  4.2            0.001          270.29087     -7420.739       60.337645     -517.28184      34740.451    
ec     4300  4.3            0.001          293.70995     -7426.5325      65.565539      91.277315      34721.764    
ec     4400  4.4            0.001          303.23996     -7427.3923      67.692944      539.7218       34710.469    
ec     4500  4.5            0.001          316.11261     -7428.5207      70.566536     -476.36768      34745.036    
ec     4600  4.6            0.001          337.80146     -7432.1231      75.408187      742.43602      34707.08     
ec     4700  4.7            0.001          294.9512      -7423.3504      65.842626      120.44717      34727.137    
ec     4800  4.8            0.001          302.22444     -7427.602       67.466249     -261.29078      34737.375    
ec     4900  4.9            0.001          309.31229     -7429.697       69.048485      600.21449      34704.368    
ec     5000  5              0.001          295.80384     -7425.6646      66.032963     -554.20838      34739.751    
ec     5100  5.1            0.001          287.80685     -7421.9998      64.247777     -370.59601      34734.331    
ec     5200  5.2            0.001          303.1652      -7421.9273      67.676255      533.81457      34714.496    
ec     5300  5.3            0.001          321.74152     -7424.4297      71.82309      -377.04232      34742.584    
ec     5400  5.4            0.001          319.36979     -7426.7102      71.293644     -204.45024      34727.573    
ec     5500  5.5            0.001          298.6918      -7423.9005      66.677649      77.918354      34724.304    
ec     5600  5.6            0.001          296.66751     -7425.78        66.225763     -150.66448      34731.65     
ec     5700  5.7            0.001          306.28791     -7429.375       68.373346      139.55472      34717.423    
ec     5800  5.8            0.001          296.79298     -7426.6855      66.253771     -231.25543      34731.387    
ec     5900  5.9            0.001          320.85627     -7429.1722      71.625474      396.45098      34716.159    
ec     6000  6              0.001          299.96885     -7423.5957      66.962726     -147.8529       34732.469    
ec     6100  6.1            0.001          296.22955     -7423.6296      66.127995     -237.14317      34732.961    
ec     6200  6.2            0.001          296.83668     -7425.1108      66.263525      233.52353      34713.715    
ec     6300  6.3            0.001          304.65547     -7427.1467      68.008932     -577.07626      34747.068    
ec     6400  6.4            0.001          309.9985      -7428.4889      69.201669      612.38919      34704.944    
ec     6500  6.5            0.001          303.97393     -7426.5658      67.856791     -253.48213      34735.877    
ec     6600  6.6            0.001          293.20796     -7422.9078      65.453478      187.39799      34726.863    
ec     6700  6.7            0.001          301.66788     -7423.3703      67.342006      801.00906      34703.759    
ec     6800  6.8            0.001          302.81785     -7424.522       67.598717     -1118.5999      34766.126    
ec     6900  6.9            0.001          293.18512     -7424.9686      65.448379      919.75282      34689.694    
ec     7000  7              0.001          278.93356     -7422.6229      62.266972     -590.02031      34742.413    
ec     7100  7.1            0.001          282.26547     -7422.9268      63.010762     -631.10596      34741.806    
ec     7200  7.2            0.001          301.94017     -7424.5309      67.40279       1202.5279      34686.949    
ec     7300  7.3            0.001          296.14999     -7421.0076      66.110234     -1630.1592      34778.652    
ec     7400  7.4            0.001          305.74715     -7424.7652      68.25263       614.3557       34705.612    
ec     7500  7.5            0.001          300.501       -7425.2514      67.081521      364.69209      34718.668    
ec     7600  7.6            0.001          306.56361     -7427.7656      68.434891     -895.49356      34752.3      
ec     7700  7.7            0.001          299.65602     -7426.4917      66.892895      959.93078      34690.589    
ec     7800  7.8            0.001          305.17672     -7428.2388      68.125292     -630.68874      34750.491    
ec     7900  7.9            0.001          302.6032      -7427.4007      67.5508        344.71368      34714.943    
ec     8000  8              0.001          298.50717     -7424.8761      66.636433      257.23896      34715.66     
ec     8100  8.1            0.001          317.43803     -7427.5369      70.862412     -767.09478      34755.436    
ec     8200  8.2            0.001          326.28455     -7429.6508      72.83724       1300.3485      34687.403    
ec     8300  8.3            0.001          296.4109      -7426.1812      66.168479     -577.72349      34748.37     
ec     8400  8.4            0.001          301.66767     -7428.4629      67.341958     -176.7996       34729.106    
ec     8500  8.5            0.001          301.95279     -7427.5229      67.405607      933.23832      34689.843    
ec     8600  8.6            0.001          289.93944     -7423.4996      64.723839     -1506.4719      34775.591    
ec     8700  8.7            0.001          285.21873     -7422.2952      63.670025      852.14977      34693.621    
ec     8800  8.8            0.001          295.05137     -7424.3761      65.864988     -211.68372      34731.032    
ec     8900  8.9            0.001          305.75317     -7427.5362      68.253974     -877.25195      34756.792    
ec     9000  9              0.001          302.94079     -7427.8758      67.626161      1443.1405      34672.056    
ec     9100  9.1            0.001          297.65172     -7428.1045      66.445469     -1396.1434      34772.23     
ec     9200  9.2            0.001          278.65975     -7424.4172      62.205848      834.65252      34694.925    
ec     9300  9.3            0.001          312.27427     -7429.0717      69.709695      273.99101      34717.166    
ec     9400  9.4            0.001          308.29095     -7426.4506      68.820488     -1423.4773      34776.715    
ec     9500  9.5            0.001          295.39026     -7423.8944      65.940638      2038.2958      34655.181    
ec     9600  9.6            0.001          294.30072     -7424.9601      65.697417     -1898.4434      34790.585    
ec     9700  9.7            0.001          297.13884     -7427.018       66.330978      1126.0027      34693.427    
ec     9800  9.8            0.001          285.54447     -7427.6558      63.74274       1067.8365      34689.321    
ec     9900  9.9            0.001          284.75597     -7427.8275      63.566721     -2185.132       34795.776    
ec    10000  10             0.001          296.83854     -7427.6308      66.26394       2463.2043      34634.735    
ec    10100  10.1           0.001          284.37003     -7423.3294      63.480568     -2111.8962      34792.64     
ec    10200  10.2           0.001          296.21198     -7424.1377      66.124072      110.18931      34719.821    
ec    10300  10.3           0.001          294.05057     -7423.2052      65.641577      1220.4547      34680.897    
ec    10400  10.4           0.001          305.83063     -7426.7158      68.271265     -2587.4825      34813.588    
ec    10500  10.5           0.001          276.79957     -7423.6593      61.790597      2389.6409      34639.782    
ec    10600  10.6           0.001          271.7815      -7422.6543      60.670402     -1687.9989      34772.475    
ec    10700  10.7           0.001          309.61087     -7429.1846      69.115137     -526.047        34739.722    
ec    10800  10.8           0.001          292.5166      -7424.1209      65.299146      1640.7716      34667.652    
ec    10900  10.9           0.001          298.90218     -7425.1617      66.724612     -2154.0583      34799.101    
ec    11000  11             0.001          310.15088     -7427.8952      69.235685      1385.6182      34677.886    
ec    11100  11.1           0.001          299.22608     -7427.6088      66.796918     -62.989455      34728.239    
ec    11200  11.2           0.001          296.139       -7429.5637      66.107781     -581.20492      34747.092    
ec    11300  11.3           0.001          317.29663     -7432.4439      70.830847      1591.57        34674.794    
ec    11400  11.4           0.001          308.20088     -7428.3203      68.800382     -870.81393      34755.16     
ec    11500  11.5           0.001          295.3348      -7424.5623      65.928258      140.00258      34715.976    
ec    11600  11.6           0.001          286.52709     -7422.1852      63.962093     -99.142185      34722.934    
ec    11700  11.7           0.001          278.08396     -7420.8501      62.077314     -1113.9661      34756.042    
ec    11800  11.8           0.001          288.1949      -7425.2799      64.334401      573.70139      34699.482    
ec    11900  11.9           0.001          283.84694     -7425.628       63.363798     -618.39684      34740        
ec    12000  12             0.001          288.68329     -7424.7478      64.443426     -72.208582      34722.939    
ec    12100  12.1           0.001          312.04076     -7427.9366      69.657568      461.89117      34711.245    
ec    12200  12.2           0.001          301.73494     -7425.5473      67.356975     -698.9049       34750.279    
ec    12300  12.3           0.001          299.67189     -7425.6044      66.896437      607.69989      34703.415    
ec    12400  12.4           0.001          296.07609     -7426.4737      66.093739     -253.95655      34735.863    
ec    12500  12.5           0.001          293.24009     -7428.2503      65.460651      93.436244      34719.858    
ec    12600  12.6           0.001          287.76799     -7426.2948      64.239102      373.00814      34708.441    
ec    12700  12.7           0.001          314.6447      -7428.4562      70.238852     -622.00902      34749.701    
ec    12800  12.8           0.001          294.05546     -7423.7827      65.642667      766.56876      34698.223    
ec    12900  12.9           0.001          289.73463     -7423.3588      64.67812      -544.32863      34743.836    
ec    13000  13             0.001          287.86892     -7424.3706      64.261632     -329.85498      34729.993    
ec    13100  13.1           0.001          297.17211     -7427.9528      66.338404      350.21425      34707.533    
ec    13200  13.2           0.001          283.60033     -7424.7026      63.308746     -993.43685      34753.591    
ec    13300  13.3           0.001          293.64632     -7423.7137      65.551335      380.4755       34708.266    
ec    13400  13.4           0.001          295.20824     -7422.6816      65.900006     -289.6331       34734.274    
ec    13500  13.5           0.001          306.19084     -7426.1975      68.351677     -244.62395      34735.639    
ec    13600  13.6           0.001          284.90296     -7423.8872      63.599534      421.34109      34705.843    
ec    13700  13.7           0.001          303.2469      -7428.6902      67.694494     -794.33252      34747.342    
ec    13800  13.8           0.001          284.78524     -7423.9882      63.573257      440.00262      34706.659    
ec    13900  13.9           0.001          297.83369     -7426.1596      66.48609      -260.63582      34731.593    
ec    14000  14             0.001          304.47621     -7426.3815      67.968915     -409.84543      34739.893    
ec    14100  14.1           0.001          321.05428     -7428.6005      71.669675      1220.4643      34689.399    
ec    14200  14.2           0.001          295.61383     -7422.5361      65.990546     -1153.9623      34768.375    
ec    14300  14.3           0.001          299.08417     -7425.6817      66.765238      670.89706      34703.354    
ec    14400  14.4           0.001          288.7857      -7425.5665      64.466288      372.87282      34707.922    
ec    14500  14.5           0.001          301.12067     -7428.0137      67.219852     -1573.9941      34776.952    
ec    14600  14.6           0.001          303.24475     -7425.9558      67.694013      1947.5812      34660.269    
ec    14700  14.7           0.001          296.09936     -7422.9302      66.098933     -1267.1487      34769.587    
ec    14800  14.8           0.001          292.57465     -7422.904       65.312104     -285.68219      34733.815    
ec    14900  14.9           0.001          284.16869     -7422.1694      63.435621      1361.3223      34673.181    
ec    15000  15             0.001          288.35256     -7423.698       64.369597     -2408.2385      34808.721    
ec    15100  15.1           0.001          297.69535     -7425.8574      66.45521       2175.1481      34650.427    
ec    15200  15.2           0.001          304.38031     -7427.7112      67.947508     -701.64582      34749.171    
ec    15300  15.3           0.001          307.50826     -7428.024       68.645766     -918.73895      34757.95     
ec    15400  15.4           0.001          296.2673      -7424.5404      66.136422      2301.0331      34647.144    
ec    15500  15.5           0.001          306.15475     -7425.9328      68.343621     -2604.0801      34812.75     
ec    15600  15.6           0.001          308.24621     -7426.3481      68.8105        1518.7344      34676.609    
ec    15700  15.7           0.001          301.52125     -7426.8838      67.309274      386.34984      34715.448    
ec    15800  15.8           0.001          291.18447     -7426.7611      65.00177      -1436.6453      34770.149    
ec    15900  15.9           0.001          293.73112     -7426.6569      65.570264      1778.5499      34660.79     
ec    16000  16             0.001          301.30847     -7425.8639      67.261775     -1326.4604      34774.062    
ec    16100  16.1           0.001          304.01824     -7425.8791      67.866683      700.01343      34701.58     
ec    16200  16.2           0.001          299.37908     -7425.1534      66.831073     -56.631567      34726.041    
ec    16300  16.3           0.001          304.01708     -7427.3398      67.866424     -807.68264      34749.822    
ec    16400  16.4           0.001          286.84953     -7425.1323      64.034071      969.52844      34684.777    
ec    16500  16.5           0.001          308.1347      -7429.6202      68.785608     -1205.6284      34765.852    
ec    16600  16.6           0.001          315.81003     -7428.7167      70.498989      910.84145      34695.003    
ec    16700  16.7           0.001          316.00871     -7426.8664      70.543342      259.13424      34722.248    
ec    16800  16.8           0.001          293.77406     -7422.9109      65.579851     -922.81823      34757.821    
ec    16900  16.9           0.001          291.21763     -7424.481       65.009172      1207.0342      34683.575    
ec    17000  17             0.001          288.49017     -7424.575       64.400315     -1005.3608      34755.545    
ec    17100  17.1           0.001          304.08372     -7427.5551      67.881299      141.62243      34720.548    
ec    17200  17.2           0.001          315.21856     -7429.1546      70.366954      627.60292      34705.839    
ec    17300  17.3           0.001          301.08864     -7425.3498      67.2127       -647.24637      34748.272    
ec    17400  17.4           0.001          311.47445     -7424.8252      69.531148      555.13197      34710.454    
ec    17500  17.5           0.001          315.75638     -7425.4188      70.487015     -180.59781      34733.412    
ec    17600  17.6           0.001          304.90237     -7426.143       68.064049     -290.97573      34737.04     
ec    17700  17.7           0.001          305.13923     -7427.5309      68.116923      568.74676      34707.518    
ec    17800  17.8           0.001          304.63629     -7427.7722      68.00465      -303.40422      34736.507    
ec    17900  17.9           0.001          311.07187     -7428.1976      69.441279      362.15814      34717.896    
ec    18000  18             0.001          304.91226     -7424.996       68.066257      448.21876      34715.052    
ec    18100  18.1           0.001          295.6968      -7420.9537      66.009068     -426.7059       34746.382    
ec    18200  18.2           0.001          302.69637     -7424.5366      67.571598      363.2378       34712.723    
ec    18300  18.3           0.001          296.75548     -7426.04        66.245399     -497.66644      34735.027    
ec    18400  18.4           0.001          294.41152     -7425.8964      65.722152     -292.54383      34729.118    
ec    18500  18.5           0.001          291.50883     -7424.3128      65.074178      219.47851      34715.933    
ec    18600  18.6           0.001          318.01256     -7427.9753      70.990666     -276.14485      34737.855    
ec    18700  18.7           0.001          307.18451     -7424.5493      68.573495      229.6393       34717.665    
ec    18800  18.8           0.001          310.6731      -7426.1288      69.352263     -129.97901      34734.919    
ec    18900  18.9           0.001          288.02731     -7424.4254      64.296991      259.31756      34716.979    
ec    19000  19             0.001          299.37576     -7427.6097      66.83033       249.447        34716.458    
ec    19100  19.1           0.001          313.62515     -7429.4887      70.011254     -192.88244      34733.447    
ec    19200  19.2           0.001          302.24982     -7424.4522      67.471914      410.03845      34714.354    
ec    19300  19.3           0.001          296.83864     -7422.7329      66.263964     -143.86532      34732.419    
ec    19400  19.4           0.001          297.15121     -7424.7679      66.333739     -136.86334      34729.302    
ec    19500  19.5           0.001          300.57126     -7428.8994      67.097205      321.74082      34710.948    
ec    19600  19.6           0.001          305.11447     -7429.6012      68.111395     -411.48227      34733.502    
ec    19700  19.7           0.001          298.32027     -7425.653       66.594712     -40.830682      34725.009    
ec    19800  19.8           0.001          293.87982     -7423.0671      65.603459      234.78304      34718.442    
ec    19900  19.9           0.001          299.1081      -7424.2404      66.77058      -404.76798      34741.327    
ec    20000  20             0.001          304.88747     -7427.4448      68.060723      511.02568      34708.402    
ec    20100  20.1           0.001          291.46508     -7426.7933      65.064412     -127.48792      34726.568    
ec    20200  20.2           0.001          291.8505      -7426.2247      65.150451     -258.6761       34732.153    
ec    20300  20.3           0.001          308.49622     -7427.9777      68.866311      668.18362      34703.829    
ec    20400  20.4           0.001          310.50719     -7427.5266      69.315225     -356.71345      34741.929    
ec    20500  20.5           0.001          305.23158     -7426.8738      68.137539      551.84999      34709.132    
ec    20600  20.6           0.001          299.2475      -7425.6525      66.801698      50.497339      34726.3      
ec    20700  20.7           0.001          301.62507     -7427.128       67.332448     -198.30231      34732.059    
ec    20800  20.8           0.001          286.41793     -7425.5922      63.937724      232.23243      34711.508    
ec    20900  20.9           0.001          301.98296     -7428.9312      67.412342     -369.02545      34738.935    
ec    21000  21             0.001          303.73473     -7426.85        67.803393      772.99584      34698.916    
ec    21100  21.1           0.001          307.42751     -7425.8179      68.627741     -371.10553      34742.418    
ec    21200  21.2           0.001          304.78104     -7425.7114      68.036964      207.79795      34720.903    
ec    21300  21.3           0.001          295.31622     -7425.6154      65.92411       411.50981      34705.606    
ec    21400  21.4           0.001          288.12581     -7425.3906      64.31898      -1310.179       34765.464    
ec    21500  21.5           0.001          301.24829     -7427.1695      67.24834       1075.0077      34685.231    
ec    21600  21.6           0.001          307.05886     -7424.7704      68.545445     -616.59634      34746.081    
ec    21700  21.7           0.001          313.77242     -7426.3991      70.044129     -454.91604      34740.138    
ec    21800  21.8           0.001          320.19448     -7430.0083      71.47774       1378.527       34681.134    
ec    21900  21.9           0.001          290.55493     -7425.475       64.861237     -1237.4118      34765.539    
ec    22000  22             0.001          295.79123     -7426.1617      66.030149      668.63164      34699.892    
ec    22100  22.1           0.001          311.53998     -7427.9895      69.545777      112.13646      34718.044    
ec    22200  22.2           0.001          307.88397     -7424.8653      68.729637     -990.838        34761.022    
ec    22300  22.3           0.001          309.77565     -7421.8641      69.151921      1420.7542      34682.325    
ec    22400  22.4           0.001          316.53084     -7424.4791      70.659899     -830.63897      34759.083    
ec    22500  22.5           0.001          306.53105     -7426.277       68.427621      244.07989      34719.391    
ec    22600  22.6           0.001          308.75137     -7428.1221      68.923269      1024.8735      34692.016    
ec    22700  22.7           0.001          297.26356     -7426.6403      66.358819     -1632.0411      34773.587    
ec    22800  22.8           0.001          292.04638     -7425.3835      65.194176      1052.5351      34683.246    
ec    22900  22.9           0.001          291.79963     -7423.7314      65.139094     -554.94839      34739.173    
ec    23000  23             0.001          296.13963     -7422.7897      66.107922     -854.23319      34751.732    
ec    23100  23.1           0.001          297.13789     -7423.1639      66.330767      1373.9156      34678.933    
ec    23200  23.2           0.001          301.17368     -7427.7043      67.231684     -1141.6376      34763.477    
ec    23300  23.3           0.001          297.63217     -7427.8257      66.441105      910.56269      34691.359    
ec    23400  23.4           0.001          303.44978     -7427.7085      67.739784      196.55788      34720.898    
ec    23500  23.5           0.001          305.36578     -7426.1813      68.167496     -613.23001      34750.546    
ec    23600  23.6           0.001          307.48387     -7426.2688      68.640322      1418.0651      34674.501    
ec    23700  23.7           0.001          311.91958     -7427.8229      69.630516     -1425.5619      34777.355    
ec    23800  23.8           0.001          294.59728     -7427.4382      65.763619      1346.2676      34678.5      
ec    23900  23.9           0.001          302.64886     -7429.8872      67.560992     -6.7224502      34720.585    
ec    24000  24             0.001          289.95195     -7425.628       64.726632     -1443.7851      34771.012    
ec    24100  24.1           0.001          290.68265     -7424.1073      64.889748      2196.8769      34646.37     
ec    24200  24.2           0.001          296.20528     -7424.4717      66.122577     -2141.2675      34797.763    
ec    24300  24.3           0.001          292.91159     -7423.721       65.38732       921.24076      34692.089    
ec    24400  24.4           0.001          295.39205     -7425.2826      65.941039      780.64986      34698.941    
ec    24500  24.5           0.001          297.4055      -7427.9412      66.390505     -1934.6579      34789.633    
ec    24600  24.6           0.001          294.54618     -7427.4666      65.752212      2437.2887      34637.486    
ec    24700  24.7           0.001          300.69636     -7425.9743      67.125131     -1813.4455      34787.676    
ec    24800  24.8           0.001          311.57763     -7427.0718      69.554181      611.87859      34705.542    
ec    24900  24.9           0.001          306.08513     -7426.322       68.328079      1263.0506      34682.971    
ec    25000  25             0.001          311.68402     -7428.8319      69.577932     -2214.8281      34805.792    
ec    25100  25.1           0.001          296.01994     -7428.0723      66.081203      2756.4719      34628.711    
ec    25200  25.2           0.001          283.0691      -7427.8078      63.190159     -1692.5861      34775.602    
ec    25300  25.3           0.001          291.68614     -7427.7583      65.11376      -283.30932      34731.008    
ec    25400  25.4           0.001          300.81702     -7427.6117      67.152066      2060.6842      34653.519    
ec    25500  25.5           0.001          299.0374      -7425.4077      66.754797     -2686.7293      34815.491    
ec    25600  25.6           0.001          316.97345     -7428.0699      70.758703      2093.0005      34656.582    
ec    25700  25.7           0.001          294.45969     -7423.7548      65.732906     -399.24604      34738.751    
ec    25800  25.8           0.001          293.42917     -7426.527       65.502859     -1085.7779      34759.959    
ec    25900  25.9           0.001          296.33715     -7428.4249      66.152014      1825.4792      34657.312    
ec    26000  26             0.001          301.94531     -7427.9652      67.403936     -1698.2966      34782.128    
ec    26100  26.1           0.001          299.41557     -7425.6072      66.839217      764.21577      34695.778    
ec    26200  26.2           0.001          300.98213     -7425.5056      67.188924      230.21797      34714.422    
ec    26300  26.3           0.001          304.09383     -7426.5764      67.883555     -991.63648      34763.12     
ec    26400  26.4           0.001          312.33323     -7429.5719      69.722856      1765.2637      34668.408    
ec    26500  26.5           0.001          302.91328     -7429.3357      67.62002      -862.96236      34753.327    
ec    26600  26.6           0.001          291.53668     -7428.3062      65.080395      110.49582      34716.252    
ec    26700  26.7           0.001          293.36381     -7426.1025      65.488269      623.61122      34700.695    
ec    26800  26.8           0.001          294.66191     -7424.3033      65.778048     -1163.5962      34761.867    
ec    26900  26.9           0.001          308.70912     -7426.7548      68.913838      889.70104      34696.783    
ec    27000  27             0.001          314.64893     -7428.5906      70.239794     -18.248659      34730.899    
ec    27100  27.1           0.001          294.12095     -7426.3634      65.657288      46.928056      34724.888    
ec    27200  27.2           0.001          288.11062     -7427.0533      64.315589      348.22357      34707.035    
ec    27300  27.3           0.001          293.26489     -7428.0151      65.466187     -710.85023      34740.188    
ec    27400  27.4           0.001          297.66341     -7425.0874      66.448079      297.05864      34713.401    
ec    27500  27.5           0.001          301.44558     -7424.8338      67.292382     -136.52821      34730.693    
ec    27600  27.6           0.001          310.32335     -7427.0178      69.274187     -76.026161      34728.091    
ec    27700  27.7           0.001          299.04626     -7426.6054      66.756775      422.52304      34709.434    
ec    27800  27.8           0.001          299.02649     -7428.328       66.752362     -447.21         34737.283    
ec    27900  27.9           0.001          298.25269     -7427.1378      66.579624      414.64618      34709.071    
ec    28000  28             0.001          298.42589     -7423.123       66.618288     -203.94684      34730.503    
ec    28100  28.1           0.001          308.72566     -7425.5087      68.917529     -247.44798      34734.484    
ec    28200  28.2           0.001          303.51116     -7426.5158      67.753486      602.25789      34703.165    
ec    28300  28.3           0.001          289.42231     -7424.9459      64.6084       -718.06146      34748.598    
ec    28400  28.4           0.001          293.43274     -7426.1039      65.503656      482.92814      34705.708    
ec    28500  28.5           0.001          308.18733     -7426.9343      68.797358      95.352451      34721.235    
ec    28600  28.6           0.001          312.92249     -7425.7843      69.854397     -666.18757      34750.221    
ec    28700  28.7           0.001          297.50678     -7423.7455      66.413113      927.51456      34692.528    
ec    28800  28.8           0.001          298.18214     -7426.1707      66.563875     -807.967        34751.178    
ec    28900  28.9           0.001          292.01855     -7425.7189      65.187964      186.54176      34717.295    
ec    29000  29             0.001          297.00805     -7426.2723      66.301782      570.62863      34701.456    
ec    29100  29.1           0.001          294.8619      -7425.0568      65.822692     -1201.0381      34765.624    
ec    29200  29.2           0.001          302.46864     -7426.1576      67.52076       1438.5535      34674.568    
ec    29300  29.3           0.001          305.23342     -7426.9579      68.13795      -909.52422      34756.405    
ec    29400  29.4           0.001          304.60945     -7426.8639      67.99866       21.793173      34724.339    
ec    29500  29.5           0.001          292.69643     -7423.5706      65.339289      1177.1812      34681.518    
ec    29600  29.6           0.001          293.81292     -7422.8575      65.588525     -2381.0666      34806.626    
ec    29700  29.7           0.001          305.8659      -7425.6623      68.27914       2267.615       34646.424    
ec    29800  29.8           0.001          303.77556     -7427.3054      67.812509     -1151.0386      34762.338    
ec    29900  29.9           0.001          292.74008     -7426.3484      65.349032     -888.9132       34751.19     
Fix halt condition for fix-id myhalt met on step 30000 with value 30 (../fix_halt.cpp:240)
ec    30000  30             0.001          304.51876     -7428.3244      67.978415      2620.6357      34633.567    
Loop time of 24.5363 on 2 procs for 30000 steps with 1728 atoms

Performance: 105.639 ns/day, 0.227 hours/ns, 1222.678 timesteps/s, 2.113 Matom-step/s
99.1% CPU use with 2 MPI tasks x no OpenMP threads

MPI task timing breakdown:
Section |  min time  |  avg time  |  max time  |%varavg| %total
---------------------------------------------------------------
Pair    | 22.764     | 22.765     | 22.765     |   0.0 | 92.78
Neigh   | 0          | 0          | 0          |   0.0 |  0.00
Comm    | 0.98605    | 0.98659    | 0.98713    |   0.1 |  4.02
Output  | 0.0030995  | 0.0053001  | 0.0075007  |   3.0 |  0.02
Modify  | 0.66395    | 0.66575    | 0.66755    |   0.2 |  2.71
Other   |            | 0.1138     |            |       |  0.46

Nlocal:            864 ave         864 max         864 min
Histogram: 2 0 0 0 0 0 0 0 0 0
Nghost:           2006 ave        2006 max        2006 min
Histogram: 2 0 0 0 0 0 0 0 0 0
Neighs:              0 ave           0 max           0 min
Histogram: 2 0 0 0 0 0 0 0 0 0
FullNghs:        29376 ave       29376 max       29376 min
Histogram: 2 0 0 0 0 0 0 0 0 0

Total # of neighbors = 58752
Ave neighs/atom = 34
Neighbor list builds = 0
Dangerous builds = 0

unfix myhalt

fix myhalt all halt 100 v_t >= 60.0 error continue

unfix NPT

fix NVT all nvt temp ${temp} ${temp} ${tau_T}
fix NVT all nvt temp 300 ${temp} ${tau_T}
fix NVT all nvt temp 300 300 ${tau_T}
fix NVT all nvt temp 300 300 0.1

run 10000000
Per MPI rank memory allocation (min/avg/max) = 3.67 | 3.67 | 3.67 Mbytes
   Step          Time            Dt            Temp          PotEng         KinEng         Press          Volume    
ec    30000  30             0.001          304.51876     -7428.3244      67.978415      2620.6357      34633.567    
ec    30100  30.1           0.001          310.03462     -7428.3516      69.209732      2690.0582      34633.567    
ec    30200  30.2           0.001          299.4358      -7423.7608      66.843734      2745.8032      34633.567    
ec    30300  30.3           0.001          309.73713     -7424.6848      69.143323      2792.2541      34633.567    
ec    30400  30.4           0.001          298.26652     -7422.1005      66.582712      2569.0853      34633.567    
ec    30500  30.5           0.001          291.49997     -7423.8793      65.072199      2500.1839      34633.567    
ec    30600  30.6           0.001          298.17625     -7426.6719      66.562561      2536.6355      34633.567    
ec    30700  30.7           0.001          289.29262     -7425.5593      64.579449      2532.3681      34633.567    
ec    30800  30.8           0.001          296.26171     -7425.8847      66.135174      2611.0181      34633.567    
ec    30900  30.9           0.001          313.24409     -7426.9239      69.926188      2710.6562      34633.567    
ec    31000  31             0.001          308.30016     -7425.5528      68.822544      2571.0997      34633.567    
ec    31100  31.1           0.001          289.11879     -7422.9515      64.540644      2562.4012      34633.567    
ec    31200  31.2           0.001          300.41529     -7426.4197      67.062387      2567.9961      34633.567    
ec    31300  31.3           0.001          305.29041     -7427.3052      68.150672      2645.1706      34633.567    
ec    31400  31.4           0.001          290.11247     -7424.165       64.762464      2573.0078      34633.567    
ec    31500  31.5           0.001          293.47767     -7424.3767      65.513688      2628.2062      34633.567    
ec    31600  31.6           0.001          300.9255      -7424.7401      67.176283      2683.0286      34633.567    
ec    31700  31.7           0.001          314.15352     -7426.9405      70.129203      2684.9968      34633.567    
ec    31800  31.8           0.001          298.93088     -7424.805       66.731019      2531.695       34633.567    
ec    31900  31.9           0.001          299.22834     -7427.5887      66.797421      2607.9325      34633.567    
ec    32000  32             0.001          296.76575     -7427.4647      66.247693      2547.559       34633.567    
ec    32100  32.1           0.001          281.82835     -7423.1137      62.913183      2432.0479      34633.567    
ec    32200  32.2           0.001          301.3531      -7425.6841      67.271736      2677.2831      34633.567    
ec    32300  32.3           0.001          313.14145     -7428.2039      69.903276      2697.0399      34633.567    
ec    32400  32.4           0.001          304.54161     -7426.8735      67.983515      2552.9413      34633.567    
ec    32500  32.5           0.001          294.66794     -7425.4523      65.779394      2649.1049      34633.567    
ec    32600  32.6           0.001          285.77508     -7425.4986      63.794221      2564.2937      34633.567    
ec    32700  32.7           0.001          289.15811     -7427.5689      64.549421      2416.7654      34633.567    
ec    32800  32.8           0.001          301.1117      -7428.0058      67.217849      2556.9127      34633.567    
ec    32900  32.9           0.001          311.73033     -7427.4234      69.58827       2719.5757      34633.567    
ec    33000  33             0.001          300.80269     -7425.1865      67.148867      2705.3175      34633.567    
ec    33100  33.1           0.001          307.63165     -7427.7959      68.673312      2716.6052      34633.567    
ec    33200  33.2           0.001          296.87926     -7427.3579      66.273031      2645.1321      34633.567    
ec    33300  33.3           0.001          285.73509     -7426.3504      63.785292      2539.5355      34633.567    
ec    33400  33.4           0.001          285.71587     -7425.8201      63.781002      2513.705       34633.567    
ec    33500  33.5           0.001          294.32006     -7424.3788      65.701735      2556.1362      34633.567    
ec    33600  33.6           0.001          297.90034     -7423.8379      66.50097       2662.2407      34633.567    
ec    33700  33.7           0.001          303.64023     -7426.0336      67.782298      2611.4396      34633.567    
ec    33800  33.8           0.001          296.81142     -7426.7693      66.257888      2669.7738      34633.567    
ec    33900  33.9           0.001          292.7005      -7427.333       65.340197      2584.3601      34633.567    
ec    34000  34             0.001          286.00326     -7424.4923      63.845158      2494.8053      34633.567    
ec    34100  34.1           0.001          304.4396      -7424.897       67.960744      2636.6896      34633.567    
ec    34200  34.2           0.001          296.37925     -7423.1188      66.161413      2720.6741      34633.567    
ec    34300  34.3           0.001          293.01567     -7424.6854      65.410554      2639.6665      34633.567    
ec    34400  34.4           0.001          292.9177      -7426.2598      65.388683      2560.0539      34633.567    
ec    34500  34.5           0.001          305.78785     -7428.6355      68.261716      2748.0899      34633.567    
ec    34600  34.6           0.001          309.22313     -7426.5746      69.028582      2796.1089      34633.567    
ec    34700  34.7           0.001          304.96938     -7423.8154      68.079007      2765.4013      34633.567    
ec    34800  34.8           0.001          306.00222     -7425.404       68.30957       2647.1399      34633.567    
ec    34900  34.9           0.001          302.43666     -7426.5469      67.513623      2606.9264      34633.567    
ec    35000  35             0.001          289.28993     -7424.5177      64.578847      2470.6026      34633.567    
ec    35100  35.1           0.001          292.56735     -7425.1631      65.310473      2576.2706      34633.567    
ec    35200  35.2           0.001          299.81554     -7425.5253      66.928503      2668.0392      34633.567    
ec    35300  35.3           0.001          315.754       -7425.3756      70.486483      2723.3102      34633.567    
ec    35400  35.4           0.001          295.85003     -7422.0167      66.043274      2636.5845      34633.567    
ec    35500  35.5           0.001          298.33982     -7424.9226      66.599076      2619.4023      34633.567    
ec    35600  35.6           0.001          299.27635     -7426.4109      66.808139      2608.6909      34633.567    
ec    35700  35.7           0.001          315.7019      -7430.2301      70.474853      2677.3611      34633.567    
ec    35800  35.8           0.001          308.67318     -7428.2404      68.905815      2686.4441      34633.567    
ec    35900  35.9           0.001          302.6047      -7423.6941      67.551135      2664.8466      34633.567    
ec    36000  36             0.001          315.30781     -7425.5899      70.386879      2758.8853      34633.567    
ec    36100  36.1           0.001          308.01368     -7426.474       68.758593      2727.8657      34633.567    
ec    36200  36.2           0.001          291.808       -7424.2155      65.140963      2632.1125      34633.567    
ec    36300  36.3           0.001          294.82368     -7425.516       65.814159      2616.5003      34633.567    
ec    36400  36.4           0.001          294.80882     -7425.7655      65.810842      2514.8433      34633.567    
ec    36500  36.5           0.001          294.19556     -7423.6738      65.673943      2599.8015      34633.567    
ec    36600  36.6           0.001          304.00528     -7423.2321      67.863789      2770.6116      34633.567    
ec    36700  36.7           0.001          306.87425     -7425.1224      68.504236      2700.2862      34633.567    
ec    36800  36.8           0.001          299.42486     -7426.2626      66.841292      2644.4021      34633.567    
ec    36900  36.9           0.001          300.05483     -7426.5521      66.981922      2697.4491      34633.567    
ec    37000  37             0.001          289.95051     -7424.6189      64.72631       2526.705       34633.567    
ec    37100  37.1           0.001          307.08649     -7427.1404      68.551614      2632.2872      34633.567    
ec    37200  37.2           0.001          310.50287     -7425.3597      69.314261      2773.968       34633.567    
ec    37300  37.3           0.001          301.25748     -7422.4984      67.250392      2663.5467      34633.567    
ec    37400  37.4           0.001          304.39079     -7426.6495      67.949846      2674.8885      34633.567    
ec    37500  37.5           0.001          298.86125     -7427.0618      66.715474      2666.5533      34633.567    
ec    37600  37.6           0.001          302.65581     -7427.5133      67.562543      2697.4116      34633.567    
ec    37700  37.7           0.001          301.61672     -7425.8578      67.330584      2659.6414      34633.567    
ec    37800  37.8           0.001          316.52011     -7427.171       70.657502      2781.7691      34633.567    
ec    37900  37.9           0.001          302.98514     -7424.1478      67.636061      2604.9334      34633.567    
ec    38000  38             0.001          290.69987     -7425.1248      64.893593      2532.3528      34633.567    
ec    38100  38.1           0.001          293.03701     -7426.7986      65.415317      2602.4523      34633.567    
ec    38200  38.2           0.001          292.83177     -7425.705       65.369501      2553.5597      34633.567    
ec    38300  38.3           0.001          305.16115     -7425.8244      68.121817      2771.6711      34633.567    
ec    38400  38.4           0.001          302.57264     -7425.2705      67.543978      2660.6647      34633.567    
ec    38500  38.5           0.001          304.93002     -7426.4287      68.070221      2684.0785      34633.567    
ec    38600  38.6           0.001          288.67357     -7424.5794      64.441256      2565.0988      34633.567    
ec    38700  38.7           0.001          288.22341     -7428.256       64.340766      2444.8102      34633.567    
ec    38800  38.8           0.001          286.02814     -7428.0792      63.850712      2503.4676      34633.567    
ec    38900  38.9           0.001          300.02255     -7428.6821      66.974715      2609.0502      34633.567    
ec    39000  39             0.001          304.39753     -7427.6492      67.951352      2672.5877      34633.567    
ec    39100  39.1           0.001          308.20983     -7427.0986      68.802381      2728.8032      34633.567    
ec    39200  39.2           0.001          291.28142     -7422.2592      65.023413      2648.733       34633.567    
ec    39300  39.3           0.001          285.6048      -7422.1511      63.756207      2516.83        34633.567    
ec    39400  39.4           0.001          289.17992     -7426.1788      64.55429       2478.5532      34633.567    
ec    39500  39.5           0.001          289.5571      -7426.4361      64.638489      2606.4884      34633.567    
ec    39600  39.6           0.001          287.93922     -7424.6658      64.277325      2488.4465      34633.567    
ec    39700  39.7           0.001          303.80402     -7426.645       67.818861      2674.1799      34633.567    
ec    39800  39.8           0.001          307.99771     -7427.4326      68.755027      2648.9309      34633.567    
ec    39900  39.9           0.001          291.80944     -7423.8924      65.141284      2668.2939      34633.567    
ec    40000  40             0.001          300.29906     -7426.7671      67.036441      2632.2587      34633.567    
ec    40100  40.1           0.001          298.51848     -7429.2436      66.638957      2523.2668      34633.567    
ec    40200  40.2           0.001          286.2454      -7426.7713      63.89921       2514.0249      34633.567    
ec    40300  40.3           0.001          293.28433     -7425.1091      65.470528      2614.9765      34633.567    
ec    40400  40.4           0.001          306.53851     -7426.8162      68.429287      2755.1155      34633.567    
ec    40500  40.5           0.001          301.11368     -7426.0169      67.218291      2630.9425      34633.567    
ec    40600  40.6           0.001          300.1205      -7425.9419      66.99658       2651.2419      34633.567    
ec    40700  40.7           0.001          295.98607     -7426.8224      66.073642      2546.8209      34633.567    
ec    40800  40.8           0.001          289.02162     -7427.1104      64.518952      2456.9728      34633.567    
ec    40900  40.9           0.001          293.36208     -7426.5823      65.487884      2581.6666      34633.567    
ec    41000  41             0.001          317.4295      -7428.5816      70.860509      2763.5643      34633.567    
ec    41100  41.1           0.001          308.33694     -7426.5459      68.830755      2726.8301      34633.567    
ec    41200  41.2           0.001          299.4028      -7425.7474      66.836367      2745.5163      34633.567    
ec    41300  41.3           0.001          298.95118     -7427.3171      66.73555       2754.0509      34633.567    
ec    41400  41.4           0.001          294.71646     -7428.6025      65.790225      2543.4899      34633.567    
ec    41500  41.5           0.001          293.33178     -7427.1901      65.48112       2623.4811      34633.567    
ec    41600  41.6           0.001          302.24399     -7425.4107      67.470613      2758.0728      34633.567    
ec    41700  41.7           0.001          304.92859     -7425.5652      68.0699        2626.5759      34633.567    
ec    41800  41.8           0.001          306.49838     -7426.9661      68.42033       2550.8112      34633.567    
ec    41900  41.9           0.001          296.24832     -7426.9424      66.132186      2573.1595      34633.567    
ec    42000  42             0.001          297.36115     -7427.95        66.380606      2604.7786      34633.567    
ec    42100  42.1           0.001          306.06475     -7427.3451      68.323529      2742.3899      34633.567    
ec    42200  42.2           0.001          311.0877      -7425.6907      69.444814      2784.2479      34633.567    
ec    42300  42.3           0.001          309.16973     -7426.3784      69.01666       2776.0195      34633.567    
ec    42400  42.4           0.001          300.1206      -7426.5812      66.996602      2714.3205      34633.567    
ec    42500  42.5           0.001          294.24106     -7426.4339      65.684099      2596.8445      34633.567    
ec    42600  42.6           0.001          296.3056      -7426.2992      66.144971      2611.1316      34633.567    
ec    42700  42.7           0.001          315.29892     -7428.1405      70.384893      2738.1795      34633.567    
ec    42800  42.8           0.001          304.52492     -7421.6157      67.97979       2809.2197      34633.567    
ec    42900  42.9           0.001          311.27717     -7423.8808      69.487109      2769.3803      34633.567    
ec    43000  43             0.001          307.80386     -7425.9172      68.711755      2695.0841      34633.567    
ec    43100  43.1           0.001          290.4638      -7424.6611      64.840894      2566.4539      34633.567    
ec    43200  43.2           0.001          291.35274     -7425.523       65.039334      2552.5507      34633.567    
ec    43300  43.3           0.001          297.5685      -7426.27        66.426893      2678.8374      34633.567    
ec    43400  43.4           0.001          299.61839     -7424.1822      66.884493      2680.6076      34633.567    
ec    43500  43.5           0.001          312.07408     -7425.1325      69.665006      2818.6585      34633.567    
ec    43600  43.6           0.001          302.60433     -7424.9495      67.551052      2843.1358      34633.567    
ec    43700  43.7           0.001          304.47054     -7428.7816      67.967649      2641.4888      34633.567    
ec    43800  43.8           0.001          300.74368     -7427.5704      67.135693      2661.3435      34633.567    
ec    43900  43.9           0.001          299.90583     -7425.5228      66.94866       2675.1446      34633.567    
ec    44000  44             0.001          298.64174     -7423.9786      66.666474      2695.0764      34633.567    
ec    44100  44.1           0.001          305.78585     -7425.736       68.261269      2779.4853      34633.567    
ec    44200  44.2           0.001          301.69139     -7428.1043      67.347254      2712.7324      34633.567    
ec    44300  44.3           0.001          299.05719     -7428.6719      66.759215      2650.0865      34633.567    
ec    44400  44.4           0.001          299.97109     -7427.3807      66.963227      2702.5692      34633.567    
ec    44500  44.5           0.001          290.36806     -7423.8839      64.819522      2602.8592      34633.567    
ec    44600  44.6           0.001          302.28205     -7426.1253      67.479109      2631.4412      34633.567    
ec    44700  44.7           0.001          302.21519     -7426.2814      67.464184      2607.802       34633.567    
ec    44800  44.8           0.001          301.90506     -7426.7115      67.394953      2674.1944      34633.567    
ec    44900  44.9           0.001          295.69926     -7427.771       66.009617      2631.0477      34633.567    
ec    45000  45             0.001          300.97975     -7430.3378      67.188393      2603.8401      34633.567    
ec    45100  45.1           0.001          298.5536      -7427.3975      66.646798      2639.134       34633.567    
ec    45200  45.2           0.001          290.69807     -7423.7693      64.89319       2623.6455      34633.567    
ec    45300  45.3           0.001          300.64165     -7425.3823      67.112918      2689.8196      34633.567    
ec    45400  45.4           0.001          301.24568     -7426.105       67.247756      2736.9712      34633.567    
ec    45500  45.5           0.001          305.58518     -7429.0435      68.216474      2663.2387      34633.567    
ec    45600  45.6           0.001          294.34643     -7428.8151      65.707621      2626.5229      34633.567    
ec    45700  45.7           0.001          292.5791      -7426.93        65.313097      2575.0315      34633.567    
ec    45800  45.8           0.001          303.02383     -7426.0754      67.644697      2691.5152      34633.567    
ec    45900  45.9           0.001          304.23236     -7425.8864      67.91448       2768.9163      34633.567    
ec    46000  46             0.001          301.95263     -7425.9318      67.405572      2703.9637      34633.567    
ec    46100  46.1           0.001          290.76041     -7425.6154      64.907107      2565.5581      34633.567    
ec    46200  46.2           0.001          292.2974      -7427.0319      65.250213      2508.7204      34633.567    
ec    46300  46.3           0.001          294.53928     -7426.1019      65.750673      2646.5802      34633.567    
ec    46400  46.4           0.001          293.27165     -7422.6808      65.467696      2638.7007      34633.567    
ec    46500  46.5           0.001          315.1282      -7427.1373      70.346784      2777.6543      34633.567    
ec    46600  46.6           0.001          308.90775     -7427.6436      68.958179      2661.7854      34633.567    
ec    46700  46.7           0.001          306.07071     -7429.0436      68.324861      2566.8255      34633.567    
ec    46800  46.8           0.001          295.23263     -7426.7378      65.90545       2619.8534      34633.567    
ec    46900  46.9           0.001          299.73786     -7426.8912      66.911164      2694.221       34633.567    
ec    47000  47             0.001          309.85543     -7428.5779      69.16973       2713.9878      34633.567    
ec    47100  47.1           0.001          302.99578     -7426.0091      67.638436      2648.9712      34633.567    
ec    47200  47.2           0.001          301.18478     -7424.6268      67.234161      2647.8551      34633.567    
ec    47300  47.3           0.001          302.90689     -7424.7409      67.618593      2696.632       34633.567    
ec    47400  47.4           0.001          297.82629     -7425.2677      66.484438      2694.1085      34633.567    
ec    47500  47.5           0.001          294.13851     -7426.5894      65.661207      2556.2516      34633.567    
ec    47600  47.6           0.001          295.80642     -7426.9909      66.033539      2539.2508      34633.567    
ec    47700  47.7           0.001          294.11696     -7424.2345      65.656398      2557.1683      34633.567    
ec    47800  47.8           0.001          297.94943     -7422.9234      66.511929      2665.3788      34633.567    
ec    47900  47.9           0.001          305.35169     -7425.4189      68.164351      2756.3384      34633.567    
ec    48000  48             0.001          307.87625     -7427.5153      68.727913      2698.9213      34633.567    
ec    48100  48.1           0.001          296.47981     -7426.2101      66.18386       2632.4047      34633.567    
ec    48200  48.2           0.001          295.65345     -7425.9108      65.999391      2688.0255      34633.567    
ec    48300  48.3           0.001          295.38191     -7425.3321      65.938774      2583.0752      34633.567    
ec    48400  48.4           0.001          294.48366     -7425.1439      65.738257      2604.22        34633.567    
ec    48500  48.5           0.001          302.56255     -7426.3825      67.541726      2639.6041      34633.567    
ec    48600  48.6           0.001          299.91449     -7425.679       66.950593      2618.5379      34633.567    
ec    48700  48.7           0.001          305.35256     -7426.7621      68.164546      2643.7039      34633.567    
ec    48800  48.8           0.001          303.48959     -7426.9001      67.74867       2703.2391      34633.567    
ec    48900  48.9           0.001          304.02319     -7428.0743      67.867787      2580.0881      34633.567    
ec    49000  49             0.001          298.10321     -7426.9846      66.546256      2539.5747      34633.567    
ec    49100  49.1           0.001          292.88943     -7424.7084      65.382372      2604.3696      34633.567    
ec    49200  49.2           0.001          310.46297     -7426.0288      69.305354      2682.7261      34633.567    
ec    49300  49.3           0.001          306.2866      -7425.0133      68.373052      2705.0174      34633.567    
ec    49400  49.4           0.001          297.31674     -7425.6856      66.37069       2675.6118      34633.567    
ec    49500  49.5           0.001          296.32369     -7427.6906      66.149011      2575.3782      34633.567    
ec    49600  49.6           0.001          296.49726     -7426.8273      66.187756      2642.8967      34633.567    
ec    49700  49.7           0.001          302.85307     -7426.3845      67.606578      2679.8098      34633.567    
ec    49800  49.8           0.001          307.41312     -7426.062       68.624529      2750.6134      34633.567    
ec    49900  49.9           0.001          311.03331     -7426.9399      69.432672      2687.9091      34633.567    
ec    50000  50             0.001          294.58989     -7426.5461      65.76197       2588.7511      34633.567    
ec    50100  50.1           0.001          305.34525     -7429.9555      68.162912      2612.7065      34633.567    
ec    50200  50.2           0.001          296.08222     -7426.5691      66.095107      2686.1842      34633.567    
ec    50300  50.3           0.001          299.38707     -7424.6137      66.832856      2829.9331      34633.567    
ec    50400  50.4           0.001          303.20883     -7425.3139      67.685995      2747.0966      34633.567    
ec    50500  50.5           0.001          302.14875     -7426.1255      67.44935       2603.2514      34633.567    
ec    50600  50.6           0.001          287.73764     -7424.0181      64.232327      2564.3372      34633.567    
ec    50700  50.7           0.001          289.51865     -7425.9584      64.629906      2579.3853      34633.567    
ec    50800  50.8           0.001          290.97597     -7428.8452      64.955226      2608.5501      34633.567    
ec    50900  50.9           0.001          293.91433     -7428.437       65.611164      2544.2374      34633.567    
ec    51000  51             0.001          306.69464     -7428.0812      68.464141      2633.4248      34633.567    
ec    51100  51.1           0.001          297.42521     -7425.2757      66.394905      2704.8651      34633.567    
ec    51200  51.2           0.001          300.64094     -7425.3158      67.11276       2680.9039      34633.567    
ec    51300  51.3           0.001          306.9254      -7426.5285      68.515654      2698.1774      34633.567    
ec    51400  51.4           0.001          296.00777     -7425.6575      66.078486      2623.5816      34633.567    
ec    51500  51.5           0.001          296.14853     -7427.8407      66.109909      2559.4301      34633.567    
ec    51600  51.6           0.001          288.59952     -7426.2656      64.424726      2519.4266      34633.567    
ec    51700  51.7           0.001          298.25163     -7424.7274      66.579388      2736.4999      34633.567    
ec    51800  51.8           0.001          304.07654     -7425.0235      67.879696      2740.8444      34633.567    
ec    51900  51.9           0.001          309.50141     -7427.2902      69.090703      2694.2742      34633.567    
ec    52000  52             0.001          301.99696     -7427.5763      67.415468      2623.8833      34633.567    
ec    52100  52.1           0.001          294.42884     -7427.2703      65.726019      2562.0103      34633.567    
ec    52200  52.2           0.001          299.41147     -7427.0141      66.838303      2647.4582      34633.567    
ec    52300  52.3           0.001          306.08219     -7425.1059      68.327423      2745.0893      34633.567    
ec    52400  52.4           0.001          312.13559     -7426.1716      69.678737      2772.0014      34633.567    
ec    52500  52.5           0.001          297.00636     -7425.3091      66.301405      2648.9345      34633.567    
ec    52600  52.6           0.001          299.27613     -7427.218       66.808091      2699.9587      34633.567    
ec    52700  52.7           0.001          293.79397     -7425.8658      65.584295      2594.4235      34633.567    
ec    52800  52.8           0.001          294.20061     -7424.2848      65.675069      2677.4661      34633.567    
ec    52900  52.9           0.001          314.40968     -7424.8022      70.186388      2717.2555      34633.567    
ec    53000  53             0.001          308.09834     -7423.7945      68.777492      2713.0034      34633.567    
ec    53100  53.1           0.001          309.72609     -7426.4864      69.140858      2738.3647      34633.567    
ec    53200  53.2           0.001          303.51276     -7426.8558      67.753842      2696.4529      34633.567    
ec    53300  53.3           0.001          296.98987     -7426.2782      66.297722      2649.9224      34633.567    
ec    53400  53.4           0.001          305.54311     -7428.0388      68.207081      2726.1867      34633.567    
ec    53500  53.5           0.001          306.0887      -7426.9505      68.328876      2694.4458      34633.567    
ec    53600  53.6           0.001          301.60295     -7423.7428      67.327511      2680.8006      34633.567    
ec    53700  53.7           0.001          307.43211     -7425.0782      68.628769      2742.041       34633.567    
ec    53800  53.8           0.001          297.08461     -7425.7185      66.318873      2640.4259      34633.567    
ec    53900  53.9           0.001          289.65928     -7425.2673      64.6613        2515.9652      34633.567    
ec    54000  54             0.001          300.96893     -7427.0807      67.185977      2641.7934      34633.567    
ec    54100  54.1           0.001          303.0843      -7426.4647      67.658197      2687.9716      34633.567    
ec    54200  54.2           0.001          294.29686     -7423.3965      65.696556      2642.6523      34633.567    
ec    54300  54.3           0.001          311.17918     -7424.5604      69.465234      2712.9414      34633.567    
ec    54400  54.4           0.001          305.14371     -7422.7621      68.117924      2655.2484      34633.567    
ec    54500  54.5           0.001          301.07547     -7425.2925      67.20976       2667.0434      34633.567    
ec    54600  54.6           0.001          297.59739     -7425.9226      66.433341      2709.6908      34633.567    
ec    54700  54.7           0.001          301.39864     -7427.215       67.281902      2660.1079      34633.567    
ec    54800  54.8           0.001          306.48147     -7427.6735      68.416554      2726.24        34633.567    
ec    54900  54.9           0.001          303.38962     -7425.3045      67.726353      2695.7542      34633.567    
ec    55000  55             0.001          303.83144     -7423.3096      67.824982      2742.0043      34633.567    
ec    55100  55.1           0.001          308.95408     -7425.5188      68.968521      2765.1779      34633.567    
ec    55200  55.2           0.001          307.5498      -7428.6146      68.65504       2647.446       34633.567    
ec    55300  55.3           0.001          295.88942     -7426.4548      66.052066      2551.8379      34633.567    
ec    55400  55.4           0.001          293.16457     -7424.7887      65.443794      2700.666       34633.567    
ec    55500  55.5           0.001          302.38622     -7424.8782      67.502362      2696.1718      34633.567    
ec    55600  55.6           0.001          307.42066     -7424.5028      68.626213      2746.8646      34633.567    
ec    55700  55.7           0.001          308.85048     -7425.0746      68.945395      2811.5481      34633.567    
ec    55800  55.8           0.001          305.70131     -7427.8753      68.242398      2616.4995      34633.567    
ec    55900  55.9           0.001          299.5013      -7427.6709      66.858356      2480.8481      34633.567    
ec    56000  56             0.001          300.04466     -7427.1073      66.97965       2634.5341      34633.567    
ec    56100  56.1           0.001          295.52428     -7423.9209      65.970555      2652.4196      34633.567    
ec    56200  56.2           0.001          309.93378     -7425.1948      69.187222      2762.0407      34633.567    
ec    56300  56.3           0.001          318.30459     -7428.182       71.055856      2761.0552      34633.567    
ec    56400  56.4           0.001          302.87428     -7426.9129      67.611313      2762.6905      34633.567    
ec    56500  56.5           0.001          290.9123      -7424.7707      64.941013      2561.223       34633.567    
ec    56600  56.6           0.001          292.38131     -7424.291       65.268944      2686.2779      34633.567    
ec    56700  56.7           0.001          305.99696     -7426.4759      68.308395      2688.3344      34633.567    
ec    56800  56.8           0.001          298.45326     -7424.3671      66.624398      2624.9106      34633.567    
ec    56900  56.9           0.001          304.65382     -7425.9713      68.008563      2691.9336      34633.567    
ec    57000  57             0.001          298.73552     -7426.9588      66.687408      2610.991       34633.567    
ec    57100  57.1           0.001          287.81403     -7425.7634      64.24938       2511.7796      34633.567    
ec    57200  57.2           0.001          294.31557     -7426.2084      65.700733      2613.7864      34633.567    
ec    57300  57.3           0.001          303.10482     -7424.3983      67.662777      2754.6367      34633.567    
ec    57400  57.4           0.001          299.04879     -7423.6531      66.75734       2683.1962      34633.567    
ec    57500  57.5           0.001          295.9218      -7425.007       66.059294      2645.8373      34633.567    
ec    57600  57.6           0.001          296.09562     -7426.6052      66.098097      2606.0962      34633.567    
ec    57700  57.7           0.001          298.2372      -7426.9564      66.576166      2641.5538      34633.567    
ec    57800  57.8           0.001          298.54289     -7425.9461      66.644406      2739.923       34633.567    
ec    57900  57.9           0.001          304.99094     -7427.1102      68.08382       2672.2756      34633.567    
ec    58000  58             0.001          299.20462     -7425.6158      66.792126      2696.6781      34633.567    
ec    58100  58.1           0.001          298.83043     -7425.7929      66.708596      2634.8341      34633.567    
ec    58200  58.2           0.001          292.30414     -7425.4108      65.251716      2592.1811      34633.567    
ec    58300  58.3           0.001          305.04385     -7429.7155      68.095631      2661.6051      34633.567    
ec    58400  58.4           0.001          297.28207     -7428.3517      66.362952      2562.4176      34633.567    
ec    58500  58.5           0.001          296.99838     -7425.4322      66.299622      2637.8655      34633.567    
ec    58600  58.6           0.001          299.31391     -7424.3386      66.816523      2727.8794      34633.567    
ec    58700  58.7           0.001          310.77601     -7427.0512      69.375235      2747.6458      34633.567    
ec    58800  58.8           0.001          295.20425     -7425.6887      65.899114      2552.046       34633.567    
ec    58900  58.9           0.001          306.18331     -7429.4992      68.349995      2628.4913      34633.567    
ec    59000  59             0.001          301.10507     -7429.913       67.216369      2578.2325      34633.567    
ec    59100  59.1           0.001          282.03614     -7426.4871      62.959567      2436.2214      34633.567    
ec    59200  59.2           0.001          297.0103      -7426.7897      66.302284      2596.1952      34633.567    
ec    59300  59.3           0.001          306.93566     -7426.7972      68.517944      2645.8064      34633.567    
ec    59400  59.4           0.001          309.6262      -7426.3882      69.11856       2696.2932      34633.567    
ec    59500  59.5           0.001          305.084       -7426.4188      68.104595      2657.3687      34633.567    
ec    59600  59.6           0.001          291.17278     -7426.3815      64.999161      2554.609       34633.567    
ec    59700  59.7           0.001          287.33458     -7426.0179      64.142351      2463.1058      34633.567    
ec    59800  59.8           0.001          300.09931     -7427.4535      66.99185       2589.1602      34633.567    
ec    59900  59.9           0.001          298.71859     -7426.1716      66.683628      2604.4047      34633.567    
Fix halt condition for fix-id myhalt met on step 60000 with value 60 (../fix_halt.cpp:240)
ec    60000  60             0.001          302.51596     -7426.3172      67.531325      2633.309       34633.567    
Loop time of 24.7608 on 2 procs for 30000 steps with 1728 atoms

Performance: 104.682 ns/day, 0.229 hours/ns, 1211.594 timesteps/s, 2.094 Matom-step/s
99.1% CPU use with 2 MPI tasks x no OpenMP threads

MPI task timing breakdown:
Section |  min time  |  avg time  |  max time  |%varavg| %total
---------------------------------------------------------------
Pair    | 23.346     | 23.44      | 23.534     |   1.9 | 94.67
Neigh   | 0          | 0          | 0          |   0.0 |  0.00
Comm    | 0.81255    | 0.9072     | 1.0018     |   9.9 |  3.66
Output  | 0.0027726  | 0.0054015  | 0.0080304  |   3.6 |  0.02
Modify  | 0.29083    | 0.29229    | 0.29374    |   0.3 |  1.18
Other   |            | 0.1156     |            |       |  0.47

Nlocal:            864 ave         866 max         862 min
Histogram: 1 0 0 0 0 0 0 0 0 1
Nghost:           2006 ave        2008 max        2004 min
Histogram: 1 0 0 0 0 0 0 0 0 1
Neighs:              0 ave           0 max           0 min
Histogram: 2 0 0 0 0 0 0 0 0 0
FullNghs:        29678 ave       29755 max       29601 min
Histogram: 1 0 0 0 0 0 0 0 0 1

Total # of neighbors = 59356
Ave neighs/atom = 34.349537
Neighbor list builds = 0
Dangerous builds = 0

write_data cell.data_${temp}
write_data cell.data_300
System init for write_data ...
Total wall time: 0:00:49
