

units metal
timestep 0.001
boundary p p p

lattice         diamond 5.43
Lattice spacing in x,y,z = 5.43 5.43 5.43
region          box block 0 ${N} 0 ${N} 0 ${N}
region          box block 0 8 0 ${N} 0 ${N}
region          box block 0 8 0 8 0 ${N}
region          box block 0 8 0 8 0 8
create_box      1 box
Created orthogonal box = (0 0 0) to (43.44 43.44 43.44)
  1 by 1 by 2 MPI processor grid
create_atoms    1 box
Created 4096 atoms
  using lattice units in orthogonal box = (0 0 0) to (43.44 43.44 43.44)
  create_atoms CPU = 0.001 seconds

timestep ${dt}
timestep 0.001

mass 1 28.0855
labelmap atom 1 Si

pair_style sw
pair_coeff * * Si.sw Si
Reading sw potential file Si.sw with DATE: 2007-06-11


velocity all create ${temp} 4928459 mom yes rot yes dist gaussian
velocity all create 300 4928459 mom yes rot yes dist gaussian

variable t equal time
#fix myhalt all halt 100 v_t >= 30.0 error continue

#fix NVE all nve

#run 10000000

#unfix myhalt

compute 1 all vacf

thermo 100
thermo_style	custom step time dt temp pe ke press vol #c_1[4]
thermo_modify	line one flush yes format 1 "ec %8lu" flush yes


fix NPT all npt temp ${temp} ${temp} ${tau_T} iso 0.0 0.0 1.0
fix NPT all npt temp 300 ${temp} ${tau_T} iso 0.0 0.0 1.0
fix NPT all npt temp 300 300 ${tau_T} iso 0.0 0.0 1.0
fix NPT all npt temp 300 300 0.1 iso 0.0 0.0 1.0

fix myhalt all halt 100 v_t >= 30.0 error continue

run 10000000

CITE-CITE-CITE-CITE-CITE-CITE-CITE-CITE-CITE-CITE-CITE-CITE-CITE

Your simulation uses code contributions which should be cited:

- Type Label Framework: https://doi.org/10.1021/acs.jpcb.3c08419

@Article{Gissinger24,
 author = {Jacob R. Gissinger, Ilia Nikiforov, Yaser Afshar, Brendon Waters, Moon-ki Choi, Daniel S. Karls, Alexander Stukowski, Wonpil Im, Hendrik Heinz, Axel Kohlmeyer, and Ellad B. Tadmor},
 title = {Type Label Framework for Bonded Force Fields in LAMMPS},
 journal = {J. Phys. Chem. B},
 year =    2024,
 volume =  128,
 number =  13,
 pages =   {3282--3297}
}

CITE-CITE-CITE-CITE-CITE-CITE-CITE-CITE-CITE-CITE-CITE-CITE-CITE

Neighbor list info ...
  update: every = 1 steps, delay = 0 steps, check = yes
  max neighbors/atom: 2000, page size: 100000
  master list distance cutoff = 5.77118
  ghost atom cutoff = 5.77118
  binsize = 2.88559, bins = 16 16 16
  1 neighbor lists, perpetual/occasional/extra = 1 0 0
  (1) pair sw, perpetual
      attributes: full, newton on
      pair build: full/bin/atomonly
      stencil: full/bin/3d
      bin: standard
Per MPI rank memory allocation (min/avg/max) = 3.752 | 3.752 | 3.752 Mbytes
   Step          Time            Dt            Temp          PotEng         KinEng         Press          Volume    
ec        0  0              0.001          300           -17762.706      158.79609      2601.706       81972.74     
ec      100  0.1            0.001          157.73546     -17675.671      83.492581     -1238.9639      82286.849    
ec      200  0.2            0.001          147.72423     -17651.722      78.19343       412.41546      82169.204    
ec      300  0.3            0.001          202.74397     -17658.408      107.3165       1009.2122      82127.972    
ec      400  0.4            0.001          235.36351     -17650.639      124.58268     -1704.5319      82372.338    
ec      500  0.5            0.001          242.50181     -17628.681      128.36113      1462.8261      82135.344    
ec      600  0.6            0.001          283.93015     -17625.172      150.28999     -544.18116      82340.574    
ec      700  0.7            0.001          291.14096     -17606.94       154.10682      47.409624      82303.578    
ec      800  0.8            0.001          304.89057     -17597.403      161.38477      780.20859      82257.813    
ec      900  0.9            0.001          312.80988     -17595.29       165.57662     -888.81405      82396.46     
ec     1000  1              0.001          298.25043     -17594.294      157.87001      733.48175      82257.399    
ec     1100  1.1            0.001          305.25778     -17608.711      161.57914     -240.12498      82331.887    
ec     1200  1.2            0.001          306.23461     -17614.532      162.09619     -104.50228      82320.37     
ec     1300  1.3            0.001          288.92356     -17603.424      152.9331       694.54835      82248.366    
ec     1400  1.4            0.001          301.8602      -17602.19       159.78073     -855.82241      82373.088    
ec     1500  1.5            0.001          306.93798     -17598.272      162.4685       454.34558      82273.485    
ec     1600  1.6            0.001          317.79937     -17604.349      168.21766     -237.34776      82329.391    
ec     1700  1.7            0.001          284.02891     -17594.089      150.34226     -438.14174      82336.237    
ec     1800  1.8            0.001          291.68577     -17603.427      154.3952       327.43029      82273.498    
ec     1900  1.9            0.001          301.12738     -17608.963      159.39283     -592.17053      82349.34     
ec     2000  2              0.001          291.02338     -17599.055      154.04458      339.58945      82277.044    
ec     2100  2.1            0.001          299.01052     -17597.689      158.27234     -176.32973      82319.451    
ec     2200  2.2            0.001          307.31596     -17599.833      162.66857     -626.09822      82358.387    
ec     2300  2.3            0.001          298.71759     -17599.139      158.11728      612.42722      82257.283    
ec     2400  2.4            0.001          292.71013     -17601.617      154.93741     -800.53059      82370.162    
ec     2500  2.5            0.001          289.69049     -17602.799      153.33905      244.23         82277.932    
ec     2600  2.6            0.001          290.07746     -17600.293      153.54389      164.7094       82292.474    
ec     2700  2.7            0.001          308.24714     -17604.198      163.16147     -703.72156      82369.184    
ec     2800  2.8            0.001          293.88861     -17593.326      155.5612       844.94893      82255.956    
ec     2900  2.9            0.001          305.19779     -17601.749      161.54738     -204.11829      82333.11     
ec     3000  3              0.001          302.11474     -17604.662      159.91546     -119.47099      82320.405    
ec     3100  3.1            0.001          294.19382     -17603.35       155.72276      608.10306      82264.473    
ec     3200  3.2            0.001          308.59656     -17610.195      163.34642     -557.77974      82358.761    
ec     3300  3.3            0.001          292.42198     -17598.497      154.78489      397.68746      82270.123    
ec     3400  3.4            0.001          283.07089     -17589.4        149.83517     -550.53024      82347.916    
ec     3500  3.5            0.001          292.16122     -17593.672      154.64686     -160.41561      82321.286    
ec     3600  3.6            0.001          315.32679     -17609.848      166.90887      381.35121      82276.259    
ec     3700  3.7            0.001          295.72924     -17603.505      156.53549     -678.00595      82367.745    
ec     3800  3.8            0.001          295.10865     -17603.526      156.207        915.48106      82237.096    
ec     3900  3.9            0.001          309.71494     -17608.133      163.9384      -266.17062      82337.359    
ec     4000  4              0.001          293.39748     -17595.833      155.30124     -370.20563      82342.281    
ec     4100  4.1            0.001          306.28044     -17601.502      162.12045      871.99429      82240.141    
ec     4200  4.2            0.001          316.59091     -17609.352      167.57799     -893.46837      82393.3      
ec     4300  4.3            0.001          297.52106     -17602.951      157.48393      695.68935      82254.931    
ec     4400  4.4            0.001          295.60589     -17603.128      156.4702       235.25863      82299.818    
ec     4500  4.5            0.001          296.00871     -17602.596      156.68342     -614.28279      82359.159    
ec     4600  4.6            0.001          281.49836     -17591.214      149.00279      849.27685      82234.753    
ec     4700  4.7            0.001          289.37639     -17592.968      153.1728      -1018.5257      82391.616    
ec     4800  4.8            0.001          317.27996     -17608.606      167.94272      297.8286       82285.535    
ec     4900  4.9            0.001          305.28772     -17606.173      161.59499      357.86051      82277.714    
ec     5000  5              0.001          290.46724     -17599.873      153.7502      -1021.7052      82397.494    
ec     5100  5.1            0.001          297.51637     -17603.51       157.48145      1502.5784      82192.895    
ec     5200  5.2            0.001          307.75345     -17606.453      162.90015     -1040.5053      82392.436    
ec     5300  5.3            0.001          315.82026     -17607.508      167.17007      116.93926      82302.009    
ec     5400  5.4            0.001          305.99317     -17601.664      161.96839      858.69261      82249.153    
ec     5500  5.5            0.001          312.27473     -17608.054      165.29335     -1203.9176      82413.719    
ec     5600  5.6            0.001          303.23204     -17606.251      160.50687      1303.8922      82206.45     
ec     5700  5.7            0.001          293.97302     -17602.512      155.60588     -589.95933      82353.335    
ec     5800  5.8            0.001          291.66457     -17598.996      154.38398     -501.67276      82346.168    
ec     5900  5.9            0.001          301.41799     -17600.353      159.54666      1257.9125      82211.724    
ec     6000  6              0.001          295.68108     -17596.853      156.51        -1460.5029      82434.737    
ec     6100  6.1            0.001          299.64554     -17601.145      158.60846      991.8846       82228.22     
ec     6200  6.2            0.001          293.90727     -17600.017      155.57108     -29.114708      82314.514    
ec     6300  6.3            0.001          307.42533     -17608.801      162.72647     -889.4825       82384.967    
ec     6400  6.4            0.001          299.36815     -17604.54       158.46164      1468.1437      82182.735    
ec     6500  6.5            0.001          294.45511     -17598.442      155.86106     -1454.9288      82430.587    
ec     6600  6.6            0.001          290.61275     -17594.234      153.82723      567.96072      82261.626    
ec     6700  6.7            0.001          311.31412     -17605.871      164.78488      291.8096       82287.248    
ec     6800  6.8            0.001          294.68625     -17600.256      155.98341     -1115.718       82398.647    
ec     6900  6.9            0.001          311.86938     -17610.885      165.07879      1419.1481      82201.867    
ec     7000  7              0.001          299.25677     -17604.404      158.40268     -819.39049      82370.501    
ec     7100  7.1            0.001          302.93001     -17602.991      160.347        159.72492      82300.593    
ec     7200  7.2            0.001          302.11426     -17601.051      159.91521      465.10078      82270.681    
ec     7300  7.3            0.001          302.48139     -17601.808      160.10954     -971.94906      82387.39     
ec     7400  7.4            0.001          284.95273     -17596.316      150.83126      780.06573      82237.298    
ec     7500  7.5            0.001          313.63143     -17614.299      166.01148     -426.96895      82344.816    
ec     7600  7.6            0.001          296.1681      -17604.02       156.76778      34.647394      82305.695    
ec     7700  7.7            0.001          276.7855      -17590.942      146.50818      279.76778      82272.425    
ec     7800  7.8            0.001          296.15386     -17600.334      156.76025     -957.15856      82386.01     
ec     7900  7.9            0.001          301.69791     -17603.444      159.69482      805.42531      82239.795    
ec     8000  8              0.001          302.53515     -17603.574      160.13799     -403.14545      82340.184    
ec     8100  8.1            0.001          305.28098     -17602.754      161.59142     -215.59439      82334.951    
ec     8200  8.2            0.001          301.25305     -17599.02       159.45935      738.47331      82254.168    
ec     8300  8.3            0.001          300.89314     -17600.396      159.26885     -754.60277      82374.343    
ec     8400  8.4            0.001          304.476       -17606.889      161.16533      575.06767      82266.931    
ec     8500  8.5            0.001          291.30937     -17601.046      154.19596      66.584832      82297.797    
ec     8600  8.6            0.001          290.15156     -17598.772      153.58311     -713.69501      82358.484    
ec     8700  8.7            0.001          300.17586     -17602.125      158.88918      535.43445      82263.113    
ec     8800  8.8            0.001          302.82606     -17603.269      160.29198     -558.78898      82349.41     
ec     8900  8.9            0.001          293.67931     -17598.315      155.45042      18.004423      82308.615    
ec     9000  9              0.001          299.55087     -17601.371      158.55835      243.31307      82294.177    
ec     9100  9.1            0.001          295.97024     -17604.484      156.66305     -398.7225       82334.567    
ec     9200  9.2            0.001          294.29866     -17605.641      155.77825      330.27481      82279.186    
ec     9300  9.3            0.001          305.05734     -17608.148      161.47304     -26.537669      82315.919    
ec     9400  9.4            0.001          307.16742     -17607.039      162.58995      91.64179       82307.033    
ec     9500  9.5            0.001          302.09498     -17603.444      159.905       -9.6369234      82307.057    
ec     9600  9.6            0.001          299.02462     -17599.827      158.2798      -237.86878      82329.702    
ec     9700  9.7            0.001          289.738       -17593.34       153.3642       164.41075      82294.457    
ec     9800  9.8            0.001          308.52912     -17603.445      163.31073     -270.96386      82339.777    
ec     9900  9.9            0.001          312.24136     -17609.591      165.27569      586.54386      82275.397    
ec    10000  10             0.001          302.81469     -17606.363      160.28596      148.45347      82305.041    
ec    10100  10.1           0.001          296.74702     -17602.092      157.07422     -410.91589      82334.631    
ec    10200  10.2           0.001          293.593       -17597.269      155.40473      94.550636      82292.699    
ec    10300  10.3           0.001          292.59251     -17595.861      154.87516     -623.31851      82346.563    
ec    10400  10.4           0.001          302.6402      -17601.659      160.1936       14.270433      82307.816    
ec    10500  10.5           0.001          297.67295     -17599.972      157.56433      323.63047      82284.465    
ec    10600  10.6           0.001          303.02068     -17602.935      160.39499     -711.07254      82372.062    
ec    10700  10.7           0.001          300.29082     -17603.85       158.95003      853.13295      82237.608    
ec    10800  10.8           0.001          302.90572     -17606.506      160.33414     -615.6847       82352.005    
ec    10900  10.9           0.001          286.24874     -17595.939      151.51727     -353.93649      82326.762    
ec    11000  11             0.001          294.6617      -17595.829      155.97042      857.27453      82246.446    
ec    11100  11.1           0.001          301.485       -17599.943      159.58213     -1181.8178      82409.21     
ec    11200  11.2           0.001          313.84145     -17608.803      166.12265      1019.588       82235.558    
ec    11300  11.3           0.001          302.02744     -17606.035      159.86925      167.3633       82299.032    
ec    11400  11.4           0.001          292.0758      -17600.923      154.60165     -1050.4712      82391.016    
ec    11500  11.5           0.001          290.42902     -17598.196      153.72997      1360.142       82191.174    
ec    11600  11.6           0.001          296.86111     -17599.668      157.13461     -1472.0469      82427.825    
ec    11700  11.7           0.001          315.42784     -17608.048      166.96235      500.46074      82272.064    
ec    11800  11.8           0.001          307.88778     -17605.684      162.97125      735.41564      82256.385    
ec    11900  11.9           0.001          296.70131     -17604.056      157.05003     -1518.2718      82430.847    
ec    12000  12             0.001          305.79708     -17609.367      161.8646       1888.9499      82157.854    
ec    12100  12.1           0.001          298.91544     -17601.715      158.22201     -1148.1331      82406.726    
ec    12200  12.2           0.001          304.96615     -17602.925      161.42477      150.65645      82305.183    
ec    12300  12.3           0.001          306.1685      -17604.549      162.0612       1193.045       82216.478    
ec    12400  12.4           0.001          311.8858      -17607.649      165.08748     -1545.6901      82449.97     
ec    12500  12.5           0.001          310.68656     -17608.672      164.4527       1836.6434      82169.551    
ec    12600  12.6           0.001          294.80285     -17604.431      156.04513     -550.83052      82363.798    
ec    12700  12.7           0.001          287.95691     -17600.635      152.42144     -251.13766      82329.91     
ec    12800  12.8           0.001          310.46078     -17607.704      164.33319      1230.8498      82216.735    
ec    12900  12.9           0.001          296.46036     -17599.696      156.92249     -1153.433       82409.198    
ec    13000  13             0.001          303.62646     -17602.986      160.71565      847.12512      82245.597    
ec    13100  13.1           0.001          309.19686     -17606.447      163.66418      51.634871      82313.304    
ec    13200  13.2           0.001          308.8907      -17608.573      163.50212     -415.57702      82350.5      
ec    13300  13.3           0.001          290.26356     -17601.124      153.64239      928.09917      82229.092    
ec    13400  13.4           0.001          302.48944     -17605.073      160.1138      -880.72904      82382.805    
ec    13500  13.5           0.001          298.48277     -17598.261      157.99299      519.87794      82268.353    
ec    13600  13.6           0.001          310.70967     -17603.494      164.46493      165.98597      82310.396    
ec    13700  13.7           0.001          305.85055     -17602.876      161.89291     -414.15934      82348.682    
ec    13800  13.8           0.001          310.84161     -17608.346      164.53477      876.38018      82246.584    
ec    13900  13.9           0.001          290.64332     -17599.242      153.84341     -671.96314      82353.054    
ec    14000  14             0.001          301.85464     -17603.958      159.77779     -10.003481      82307.412    
ec    14100  14.1           0.001          292.51426     -17598.724      154.83373      286.49935      82280.693    
ec    14200  14.2           0.001          297.70648     -17600.782      157.58208     -656.24887      82360.268    
ec    14300  14.3           0.001          301.78081     -17600.97       159.73871      517.56655      82271.264    
ec    14400  14.4           0.001          314.91127     -17602.685      166.68893     -44.886615      82330.678    
ec    14500  14.5           0.001          295.78717     -17595.028      156.56615     -32.302081      82311.92     
ec    14600  14.6           0.001          287.52302     -17595.069      152.19177     -96.23249       82305.751    
ec    14700  14.7           0.001          296.98607     -17601.78       157.20076     -402.38764      82337.207    
ec    14800  14.8           0.001          292.46969     -17599.425      154.81014      350.28686      82277.789    
ec    14900  14.9           0.001          297.23476     -17600.117      157.33239     -292.04617      82340.896    
ec    15000  15             0.001          304.64886     -17599.902      161.25683      174.80864      82304.827    
ec    15100  15.1           0.001          304.69708     -17599.602      161.28235      420.90838      82279.893    
ec    15200  15.2           0.001          300.86636     -17602.134      159.25467     -638.97485      82367.801    
ec    15300  15.3           0.001          298.42754     -17604.256      157.96375      798.30489      82245.768    
ec    15400  15.4           0.001          304.03746     -17606.021      160.9332      -274.43674      82336.104    
ec    15500  15.5           0.001          299.5571      -17600.582      158.56165     -207.09711      82319.809    
ec    15600  15.6           0.001          309.66166     -17604.142      163.9102       451.89791      82277.068    
ec    15700  15.7           0.001          295.88302     -17599.016      156.61689     -693.60063      82368.444    
ec    15800  15.8           0.001          299.53802     -17603.287      158.55155      703.31835      82255.343    
ec    15900  15.9           0.001          304.60555     -17606.662      161.2339      -173.12571      82323.515    
ec    16000  16             0.001          304.47674     -17605.519      161.16572     -322.45814      82337.468    
ec    16100  16.1           0.001          303.44349     -17604.344      160.6188       822.03122      82238.942    
ec    16200  16.2           0.001          295.53995     -17599.901      156.43529     -1150.2058      82399.938    
ec    16300  16.3           0.001          299.18432     -17600.878      158.36433      781.3448       82248.451    
ec    16400  16.4           0.001          288.5313      -17595.196      152.72547      62.37937       82302.575    
ec    16500  16.5           0.001          301.42632     -17602.668      159.55107     -985.04219      82391.417    
ec    16600  16.6           0.001          308.52339     -17609.179      163.30769      1486.9159      82188.262    
ec    16700  16.7           0.001          305.47628     -17609.306      161.69479     -1034.0601      82391.686    
ec    16800  16.8           0.001          300.50026     -17603.182      159.06089      316.60951      82286.939    
ec    16900  16.9           0.001          303.75528     -17600.489      160.78383      814.7512       82254.576    
ec    17000  17             0.001          301.27143     -17600.405      159.46908     -1214.0602      82408.873    
ec    17100  17.1           0.001          304.21516     -17603.787      161.02726      988.61954      82224.74     
ec    17200  17.2           0.001          302.00569     -17605.316      159.85774     -577.18929      82349.63     
ec    17300  17.3           0.001          300.53715     -17605.457      159.08041     -155.37944      82322.249    
ec    17400  17.4           0.001          290.50287     -17596.32       153.76907      916.40576      82234.172    
ec    17500  17.5           0.001          318.21284     -17605.85       168.43651     -1169.1426      82413.021    
ec    17600  17.6           0.001          303.53883     -17601.314      160.66926      958.06252      82230.453    
ec    17700  17.7           0.001          294.88441     -17600.149      156.0883      -429.57803      82339.796    
ec    17800  17.8           0.001          299.94163     -17604.18       158.76519     -497.24164      82347.593    
ec    17900  17.9           0.001          301.70679     -17604.359      159.69952      1210.3225      82212.99     
ec    18000  18             0.001          309.79291     -17603.952      163.97967     -1026.382       82401.562    
ec    18100  18.1           0.001          321.21091     -17607.136      170.02345      782.46757      82257.429    
ec    18200  18.2           0.001          309.63327     -17603.318      163.89517      125.39202      82304.868    
ec    18300  18.3           0.001          297.97131     -17599.306      157.72226     -559.31285      82352.725    
ec    18400  18.4           0.001          296.80593     -17600.787      157.1054       633.59524      82253.675    
ec    18500  18.5           0.001          291.37605     -17600.093      154.23125     -742.03775      82362.509    
ec    18600  18.6           0.001          289.48529     -17598.727      153.23044      68.925223      82290.33     
ec    18700  18.7           0.001          313.92895     -17605.772      166.16896      116.17942      82301.538    
ec    18800  18.8           0.001          316.09084     -17606.215      167.3133      -288.43376      82344.024    
ec    18900  18.9           0.001          304.84354     -17603.412      161.35987      654.60072      82257.396    
ec    19000  19             0.001          287.10053     -17596.381      151.96814     -681.12921      82355.773    
ec    19100  19.1           0.001          303.41577     -17605.16       160.60413      209.4234       82296.243    
ec    19200  19.2           0.001          305.58607     -17606.194      161.75291      440.1925       82272.117    
ec    19300  19.3           0.001          302.00588     -17600.299      159.85784     -658.60029      82367.674    
ec    19400  19.4           0.001          303.04916     -17597.029      160.41007      556.74094      82268.603    
ec    19500  19.5           0.001          312.08171     -17604.908      165.19118     -116.79028      82324.399    
ec    19600  19.6           0.001          303.71083     -17604.658      160.76031     -152.52025      82320.761    
ec    19700  19.7           0.001          296.07        -17602.06       156.71586      441.40675      82273.686    
ec    19800  19.8           0.001          291.39989     -17599.156      154.24387     -309.64886      82333.944    
ec    19900  19.9           0.001          303.21554     -17601.122      160.49814      125.35565      82299.592    
ec    20000  20             0.001          305.32914     -17599.819      161.61691     -15.297007      82314.042    
ec    20100  20.1           0.001          294.83426     -17596.377      156.06176     -388.77772      82334.622    
ec    20200  20.2           0.001          295.99269     -17598.462      156.67494      166.48932      82290.095    
ec    20300  20.3           0.001          309.73143     -17607.753      163.94713     -168.63406      82324.782    
ec    20400  20.4           0.001          288.68055     -17599.109      152.80447      93.220384      82295.105    
ec    20500  20.5           0.001          294.00602     -17600.293      155.62335      97.792356      82302.616    
ec    20600  20.6           0.001          303.43081     -17601.33       160.61209     -94.6643        82322.275    
ec    20700  20.7           0.001          321.65736     -17605.998      170.25977      324.97395      82293.742    
ec    20800  20.8           0.001          304.83374     -17598.573      161.35468     -138.10708      82323.575    
ec    20900  20.9           0.001          299.83345     -17599.415      158.70793     -3.5867674      82312.341    
ec    21000  21             0.001          297.61511     -17602.069      157.53372      174.85486      82298.002    
ec    21100  21.1           0.001          305.72849     -17606.876      161.8283       21.074935      82311.267    
ec    21200  21.2           0.001          299.92759     -17603.113      158.75776      222.50002      82292.683    
ec    21300  21.3           0.001          293.17103     -17596.119      155.18137     -316.2315       82332.506    
ec    21400  21.4           0.001          299.0768      -17595.812      158.30742      129.8378       82297.861    
ec    21500  21.5           0.001          292.25298     -17594.484      154.69543     -306.36381      82330.025    
ec    21600  21.6           0.001          298.35411     -17600.552      157.92488     -93.271334      82317.827    
ec    21700  21.7           0.001          302.96925     -17603.222      160.36777      574.98924      82266.718    
ec    21800  21.8           0.001          300.94204     -17602.785      159.29473     -528.4407       82352.982    
ec    21900  21.9           0.001          297.52286     -17601.528      157.48489      284.6095       82288.526    
ec    22000  22             0.001          293.82659     -17602.43       155.52838      395.80093      82270.686    
ec    22100  22.1           0.001          293.33642     -17601.876      155.26892     -1058.8682      82391.209    
ec    22200  22.2           0.001          304.6444      -17603.556      161.25446      1222.546       82212.9      
ec    22300  22.3           0.001          312.57327     -17604.563      165.45137     -506.66647      82362.678    
ec    22400  22.4           0.001          303.32841     -17601.519      160.55788     -88.396653      82318.927    
ec    22500  22.5           0.001          312.56763     -17607.935      165.44839      961.94608      82234.263    
ec    22600  22.6           0.001          291.49839     -17598.555      154.29602     -1305.5127      82409.813    
ec    22700  22.7           0.001          293.63092     -17599.661      155.4248       899.03657      82230.748    
ec    22800  22.8           0.001          294.15771     -17599.672      155.70364     -370.8716       82335.028    
ec    22900  22.9           0.001          300.96993     -17601.685      159.30949     -595.37621      82354.923    
ec    23000  23             0.001          297.7138      -17596.343      157.58595      1145.9249      82217.04     
ec    23100  23.1           0.001          304.05342     -17600.947      160.94165     -1340.7757      82419.812    
ec    23200  23.2           0.001          297.356       -17601.495      157.39656      883.67179      82236.66     
ec    23300  23.3           0.001          294.49669     -17602.017      155.88308      58.530458      82301.318    
ec    23400  23.4           0.001          304.73767     -17605.81       161.30383     -955.32193      82386.83     
ec    23500  23.5           0.001          299.19428     -17599.086      158.36961      1486.9589      82188.717    
ec    23600  23.6           0.001          310.74123     -17601.286      164.48164     -1278.7245      82420.148    
ec    23700  23.7           0.001          310.6775      -17602.769      164.4479       669.87723      82260.802    
ec    23800  23.8           0.001          304.68951     -17602.442      161.27834      315.25511      82280.903    
ec    23900  23.9           0.001          287.2806      -17596.158      152.06345     -1316.1025      82407.32     
ec    24000  24             0.001          289.41166     -17598.692      153.19147      1148.3519      82204.214    
ec    24100  24.1           0.001          303.34074     -17605.249      160.56441     -964.53068      82383.807    
ec    24200  24.2           0.001          313.95179     -17605.756      166.18106      268.60511      82297.444    
ec    24300  24.3           0.001          313.29932     -17604.01       165.83569      863.04049      82248.774    
ec    24400  24.4           0.001          300.25424     -17600.439      158.93066     -1068.0215      82398.093    
ec    24500  24.5           0.001          294.77539     -17599.867      156.0306       944.82551      82229.986    
ec    24600  24.6           0.001          295.73271     -17600.568      156.53733     -427.04186      82339.346    
ec    24700  24.7           0.001          299.54725     -17602.662      158.55644     -520.14034      82342.169    
ec    24800  24.8           0.001          299.51584     -17602.188      158.53981      892.65782      82237.253    
ec    24900  24.9           0.001          307.01583     -17602.206      162.50971     -682.22745      82373.42     
ec    25000  25             0.001          317.97497     -17606.036      168.3106       614.11464      82270.373    
ec    25100  25.1           0.001          306.4273      -17603.78       162.19819      179.53837      82299.955    
ec    25200  25.2           0.001          299.91868     -17602.937      158.75304     -354.41082      82335.946    
ec    25300  25.3           0.001          298.86276     -17602.37       158.19412      453.53713      82270.422    
ec    25400  25.4           0.001          311.23327     -17608.446      164.74208     -277.59919      82334.945    
ec    25500  25.5           0.001          298.45685     -17599.656      157.97927      51.656006      82298.613    
ec    25600  25.6           0.001          311.84432     -17602.884      165.06553     -21.229502      82315.617    
ec    25700  25.7           0.001          306.0339      -17601.29       161.98995      53.26727       82314.006    
ec    25800  25.8           0.001          297.33585     -17601.585      157.3859       272.50354      82281.319    
ec    25900  25.9           0.001          297.11374     -17602.566      157.26833     -495.16624      82342.892    
ec    26000  26             0.001          302.06156     -17604.527      159.88731      240.5395       82285.81     
ec    26100  26.1           0.001          303.55777     -17602.172      160.67929     -42.05946       82312.925    
ec    26200  26.2           0.001          304.59769     -17599.219      161.22974     -176.13253      82332.344    
ec    26300  26.3           0.001          302.28192     -17599.825      160.00395      510.14589      82269.374    
ec    26400  26.4           0.001          301.97191     -17601.547      159.83986     -459.74026      82346.789    
ec    26500  26.5           0.001          300.64175     -17601.689      159.13578      271.05455      82290.354    
ec    26600  26.6           0.001          297.02571     -17602.358      157.22174      137.2758       82295.535    
ec    26700  26.7           0.001          298.15873     -17604.442      157.82147     -416.39027      82336.353    
ec    26800  26.8           0.001          295.46384     -17599.523      156.39501      299.5031       82276.19     
ec    26900  26.9           0.001          298.19746     -17596.858      157.84197     -458.07766      82347.954    
ec    27000  27             0.001          299.20867     -17599.123      158.37722      116.83648      82299.223    
ec    27100  27.1           0.001          305.00278     -17605.112      161.44416      153.53277      82296.037    
ec    27200  27.2           0.001          304.3603      -17606.628      161.10408     -264.1652       82329.306    
ec    27300  27.3           0.001          301.51421     -17604.523      159.59759      369.51917      82277.572    
ec    27400  27.4           0.001          297.80606     -17601.588      157.63479     -245.53988      82326.172    
ec    27500  27.5           0.001          292.59426     -17598.762      154.87608     -116.255        82314.542    
ec    27600  27.6           0.001          305.90661     -17604.944      161.92258      282.57935      82284.316    
ec    27700  27.7           0.001          302.71912     -17600.967      160.23537     -322.20551      82339.865    
ec    27800  27.8           0.001          311.28197     -17603.251      164.76787      369.76398      82290.382    
ec    27900  27.9           0.001          300.13817     -17600.487      158.86922      81.883123      82304.848    
ec    28000  28             0.001          296.59172     -17602.696      156.99202     -222.61626      82326.763    
ec    28100  28.1           0.001          301.83998     -17606.079      159.77003      458.79859      82274.519    
ec    28200  28.2           0.001          295.09293     -17600.94       156.19868     -239.4466       82328.528    
ec    28300  28.3           0.001          299.87834     -17599.791      158.73169     -36.581736      82308.829    
ec    28400  28.4           0.001          301.33766     -17597.312      159.50414     -56.687495      82314.903    
ec    28500  28.5           0.001          305.11717     -17600.473      161.50471     -86.0345        82322.158    
ec    28600  28.6           0.001          308.46314     -17604.273      163.2758       375.78669      82291.977    
ec    28700  28.7           0.001          306.82974     -17606.794      162.41121      108.15198      82305.554    
ec    28800  28.8           0.001          302.88077     -17605.944      160.32094      36.872568      82310.38     
ec    28900  28.9           0.001          295.47208     -17600.904      156.39937      189.85015      82289.238    
ec    29000  29             0.001          307.39473     -17603.11       162.71027     -285.93501      82334.254    
ec    29100  29.1           0.001          302.45596     -17599.927      160.09608      129.28778      82296.545    
ec    29200  29.2           0.001          301.389       -17603.613      159.53131      36.869503      82307.418    
ec    29300  29.3           0.001          292.5006      -17603.375      154.8265      -178.53522      82316.627    
ec    29400  29.4           0.001          295.7933      -17603.102      156.56939      223.55822      82290.766    
ec    29500  29.5           0.001          300.96313     -17601.84       159.30589     -129.249        82315.687    
ec    29600  29.6           0.001          305.09217     -17602.735      161.49148     -87.157644      82310.62     
ec    29700  29.7           0.001          293.7791      -17597.752      155.50324     -206.24922      82319.833    
ec    29800  29.8           0.001          291.46225     -17600.523      154.27688      34.003521      82300.484    
ec    29900  29.9           0.001          284.65259     -17599.83       150.67239     -123.0479       82310.64     
Fix halt condition for fix-id myhalt met on step 30000 with value 30 (../fix_halt.cpp:240)
ec    30000  30             0.001          293.19742     -17600.045      155.19535     -127.8592       82310.232    
Loop time of 56.627 on 2 procs for 30000 steps with 4096 atoms

Performance: 45.773 ns/day, 0.524 hours/ns, 529.782 timesteps/s, 2.170 Matom-step/s
99.5% CPU use with 2 MPI tasks x no OpenMP threads

MPI task timing breakdown:
Section |  min time  |  avg time  |  max time  |%varavg| %total
---------------------------------------------------------------
Pair    | 53.684     | 53.768     | 53.853     |   1.2 | 94.95
Neigh   | 0          | 0          | 0          |   0.0 |  0.00
Comm    | 1.0717     | 1.1585     | 1.2452     |   8.1 |  2.05
Output  | 0.0037415  | 0.0057065  | 0.0076715  |   2.6 |  0.01
Modify  | 1.4654     | 1.4691     | 1.4728     |   0.3 |  2.59
Other   |            | 0.2257     |            |       |  0.40

Nlocal:           2048 ave        2048 max        2048 min
Histogram: 2 0 0 0 0 0 0 0 0 0
Nghost:           3219 ave        3219 max        3219 min
Histogram: 2 0 0 0 0 0 0 0 0 0
Neighs:              0 ave           0 max           0 min
Histogram: 2 0 0 0 0 0 0 0 0 0
FullNghs:        69632 ave       69632 max       69632 min
Histogram: 2 0 0 0 0 0 0 0 0 0

Total # of neighbors = 139264
Ave neighs/atom = 34
Neighbor list builds = 0
Dangerous builds = 0

unfix myhalt

fix myhalt all halt 100 v_t >= 60.0 error continue

unfix NPT

fix NVT all nvt temp ${temp} ${temp} ${tau_T}
fix NVT all nvt temp 300 ${temp} ${tau_T}
fix NVT all nvt temp 300 300 ${tau_T}
fix NVT all nvt temp 300 300 0.1

run 10000000
Per MPI rank memory allocation (min/avg/max) = 3.752 | 3.752 | 3.752 Mbytes
   Step          Time            Dt            Temp          PotEng         KinEng         Press          Volume    
ec    30000  30             0.001          293.19742     -17600.045      155.19535     -127.8592       82310.232    
ec    30100  30.1           0.001          302.76914     -17602.53       160.26185      45.284209      82310.232    
ec    30200  30.2           0.001          298.1814      -17598.618      157.83347     -45.235616      82310.232    
ec    30300  30.3           0.001          298.17534     -17596.451      157.83026      18.714562      82310.232    
ec    30400  30.4           0.001          301.19875     -17597.795      159.43061      19.631137      82310.232    
ec    30500  30.5           0.001          305.37149     -17604.396      161.63933     -7.9765183      82310.232    
ec    30600  30.6           0.001          299.66154     -17604.339      158.61693     -31.388711      82310.232    
ec    30700  30.7           0.001          297.16997     -17602.613      157.2981      -68.703461      82310.232    
ec    30800  30.8           0.001          294.72605     -17598.388      156.00448     -65.456372      82310.232    
ec    30900  30.9           0.001          303.70983     -17599.485      160.75977      17.429376      82310.232    
ec    31000  31             0.001          297.06227     -17597.404      157.24109     -24.046462      82310.232    
ec    31100  31.1           0.001          299.25986     -17600.18       158.40431     -59.974486      82310.232    
ec    31200  31.2           0.001          296.91667     -17600.836      157.16402     -61.626026      82310.232    
ec    31300  31.3           0.001          301.49829     -17604.94       159.58916     -46.331983      82310.232    
ec    31400  31.4           0.001          290.75905     -17602.166      153.90467     -153.03899      82310.232    
ec    31500  31.5           0.001          297.41555     -17606.712      157.42808      0.80511922     82310.232    
ec    31600  31.6           0.001          297.69963     -17602.499      157.57846     -14.603722      82310.232    
ec    31700  31.7           0.001          307.28114     -17603.91       162.65014      40.958685      82310.232    
ec    31800  31.8           0.001          299.82909     -17600.292      158.70562     -20.082172      82310.232    
ec    31900  31.9           0.001          294.09478     -17599.48       155.67034     -40.221807      82310.232    
ec    32000  32             0.001          295.06773     -17603.327      156.18534     -81.950995      82310.232    
ec    32100  32.1           0.001          294.9242      -17605.707      156.10936     -60.106379      82310.232    
ec    32200  32.2           0.001          299.53137     -17604.657      158.54803     -107.36081      82310.232    
ec    32300  32.3           0.001          303.71031     -17601.634      160.76003      10.076881      82310.232    
ec    32400  32.4           0.001          305.50848     -17602.036      161.71184      52.917314      82310.232    
ec    32500  32.5           0.001          303.91465     -17604.01       160.86819      46.849999      82310.232    
ec    32600  32.6           0.001          293.45989     -17601.827      155.33428     -115.42469      82310.232    
ec    32700  32.7           0.001          304.85395     -17606.755      161.36538     -15.757613      82310.232    
ec    32800  32.8           0.001          296.59284     -17600.472      156.99261     -49.821151      82310.232    
ec    32900  32.9           0.001          309.46684     -17604.43       163.80708      28.02594       82310.232    
ec    33000  33             0.001          309.57009     -17597.288      163.86173      78.423004      82310.232    
ec    33100  33.1           0.001          300.22355     -17593.983      158.91442      122.18664      82310.232    
ec    33200  33.2           0.001          307.70784     -17603.205      162.87601      58.68516       82310.232    
ec    33300  33.3           0.001          308.14431     -17606.643      163.10703     -18.122584      82310.232    
ec    33400  33.4           0.001          293.86462     -17601.393      155.5485      -86.404237      82310.232    
ec    33500  33.5           0.001          295.84881     -17602.612      156.59878      28.94779       82310.232    
ec    33600  33.6           0.001          306.41053     -17604.343      162.18931      66.045317      82310.232    
ec    33700  33.7           0.001          306.74654     -17602.373      162.36717      1.1532013      82310.232    
ec    33800  33.8           0.001          305.75239     -17603.299      161.84095     -21.589905      82310.232    
ec    33900  33.9           0.001          298.50647     -17601.869      158.00553     -104.64139      82310.232    
ec    34000  34             0.001          295.46722     -17602.298      156.3968      -56.841726      82310.232    
ec    34100  34.1           0.001          300.06979     -17610.864      158.83303     -33.098618      82310.232    
ec    34200  34.2           0.001          295.47354     -17606.57       156.40014     -75.734254      82310.232    
ec    34300  34.3           0.001          303.65565     -17607.015      160.7311      -50.497758      82310.232    
ec    34400  34.4           0.001          296.35684     -17600.335      156.86769     -16.444283      82310.232    
ec    34500  34.5           0.001          299.96554     -17599.703      158.77785      21.51716       82310.232    
ec    34600  34.6           0.001          300.36676     -17600.059      158.99022     -40.893555      82310.232    
ec    34700  34.7           0.001          300.94169     -17604.451      159.29455      20.481698      82310.232    
ec    34800  34.8           0.001          293.24978     -17603.893      155.22306     -54.981913      82310.232    
ec    34900  34.9           0.001          296.7584      -17603.399      157.08025      30.307477      82310.232    
ec    35000  35             0.001          303.78473     -17604.489      160.79942     -18.474254      82310.232    
ec    35100  35.1           0.001          296.74323     -17598.595      157.07221     -60.586671      82310.232    
ec    35200  35.2           0.001          291.03958     -17596.06       154.05316     -74.963046      82310.232    
ec    35300  35.3           0.001          292.15556     -17597.715      154.64386     -71.447866      82310.232    
ec    35400  35.4           0.001          299.52367     -17602.344      158.54396     -38.459244      82310.232    
ec    35500  35.5           0.001          306.98741     -17605.562      162.49466      14.405903      82310.232    
ec    35600  35.6           0.001          298.19838     -17601.346      157.84246      9.5360571      82310.232    
ec    35700  35.7           0.001          300.82706     -17602.579      159.23387      20.401153      82310.232    
ec    35800  35.8           0.001          294.47601     -17598.4        155.87213     -97.064152      82310.232    
ec    35900  35.9           0.001          298.16445     -17599.28       157.82449     -65.589382      82310.232    
ec    36000  36             0.001          297.1448      -17600.195      157.28477     -15.123247      82310.232    
ec    36100  36.1           0.001          308.24279     -17608.015      163.15916      40.819541      82310.232    
ec    36200  36.2           0.001          294.25858     -17602.93       155.75704     -126.65821      82310.232    
ec    36300  36.3           0.001          294.64286     -17601.778      155.96044     -31.342856      82310.232    
ec    36400  36.4           0.001          302.88417     -17600.952      160.32274     -23.586167      82310.232    
ec    36500  36.5           0.001          301.26641     -17599.308      159.46643     -23.154811      82310.232    
ec    36600  36.6           0.001          297.43587     -17599.686      157.43884     -53.41921       82310.232    
ec    36700  36.7           0.001          300.1884      -17603.678      158.89581     -57.59251       82310.232    
ec    36800  36.8           0.001          298.2413      -17603.412      157.86517     -94.584195      82310.232    
ec    36900  36.9           0.001          298.65266     -17602.514      158.08291      29.914025      82310.232    
ec    37000  37             0.001          298.00906     -17600.891      157.74225     -2.4068256      82310.232    
ec    37100  37.1           0.001          298.83526     -17599.579      158.17957     -15.72702       82310.232    
ec    37200  37.2           0.001          297.99378     -17598.998      157.73415     -38.939958      82310.232    
ec    37300  37.3           0.001          300.69424     -17603.997      159.16356     -55.681461      82310.232    
ec    37400  37.4           0.001          298.49499     -17605.316      157.99945     -33.569368      82310.232    
ec    37500  37.5           0.001          304.87456     -17606.85       161.37629     -44.465472      82310.232    
ec    37600  37.6           0.001          303.07056     -17601.643      160.4214       9.2576746      82310.232    
ec    37700  37.7           0.001          311.77496     -17604.767      165.02881      35.630965      82310.232    
ec    37800  37.8           0.001          299.60553     -17599.754      158.58729     -31.26155       82310.232    
ec    37900  37.9           0.001          300.66682     -17602.164      159.14905      6.3894996      82310.232    
ec    38000  38             0.001          298.80256     -17602.931      158.16226     -5.2179329      82310.232    
ec    38100  38.1           0.001          295.16754     -17602.42       156.23817     -68.407238      82310.232    
ec    38200  38.2           0.001          293.47806     -17603.754      155.34389     -105.33939      82310.232    
ec    38300  38.3           0.001          293.20416     -17602.625      155.19891     -76.910272      82310.232    
ec    38400  38.4           0.001          306.47806     -17605.011      162.22506      40.086635      82310.232    
ec    38500  38.5           0.001          307.93788     -17604.122      162.99777      112.23459      82310.232    
ec    38600  38.6           0.001          312.22649     -17606.261      165.26782      120.16046      82310.232    
ec    38700  38.7           0.001          302.33996     -17603.893      160.03468      42.191865      82310.232    
ec    38800  38.8           0.001          300.86224     -17607.506      159.25249     -55.412587      82310.232    
ec    38900  38.9           0.001          291.36846     -17601.36       154.22724     -140.65338      82310.232    
ec    39000  39             0.001          300.42377     -17602.747      159.0204      -6.7111801      82310.232    
ec    39100  39.1           0.001          302.86801     -17603.056      160.31418     -16.296877      82310.232    
ec    39200  39.2           0.001          299.53833     -17601.232      158.55172     -21.354328      82310.232    
ec    39300  39.3           0.001          298.14738     -17600.187      157.81546     -60.647311      82310.232    
ec    39400  39.4           0.001          300.8802      -17604.063      159.262       -44.184999      82310.232    
ec    39500  39.5           0.001          298.13809     -17605.306      157.81054     -74.402982      82310.232    
ec    39600  39.6           0.001          296.24036     -17602.803      156.80603     -87.798438      82310.232    
ec    39700  39.7           0.001          299.58121     -17600.413      158.57441     -33.676156      82310.232    
ec    39800  39.8           0.001          302.20042     -17600.41       159.96081      20.613027      82310.232    
ec    39900  39.9           0.001          303.13249     -17602.094      160.45418      63.032042      82310.232    
ec    40000  40             0.001          304.06796     -17604.838      160.94934     -5.10174        82310.232    
ec    40100  40.1           0.001          298.4118      -17601.78       157.95542      26.980726      82310.232    
ec    40200  40.2           0.001          306.02512     -17605.094      161.98531     -57.386275      82310.232    
ec    40300  40.3           0.001          302.57427     -17603.072      160.1587      -9.4277979      82310.232    
ec    40400  40.4           0.001          295.11982     -17602.157      156.21291     -121.82769      82310.232    
ec    40500  40.5           0.001          293.5973      -17603.805      155.40701     -37.28199       82310.232    
ec    40600  40.6           0.001          296.6261      -17604.526      157.01021     -65.232407      82310.232    
ec    40700  40.7           0.001          300.86215     -17601.367      159.25244     -32.456719      82310.232    
ec    40800  40.8           0.001          300.35321     -17599.975      158.98305     -38.879602      82310.232    
ec    40900  40.9           0.001          301.31784     -17601.893      159.49365     -34.597112      82310.232    
ec    41000  41             0.001          294.9781      -17602          156.13789     -76.193216      82310.232    
ec    41100  41.1           0.001          293.84052     -17603.794      155.53575     -78.980619      82310.232    
ec    41200  41.2           0.001          298.36788     -17604.823      157.93217     -40.923571      82310.232    
ec    41300  41.3           0.001          307.07752     -17603.992      162.54236     -9.850976       82310.232    
ec    41400  41.4           0.001          307.12632     -17601.659      162.56819      133.31295      82310.232    
ec    41500  41.5           0.001          298.04982     -17599.568      157.76382     -19.864134      82310.232    
ec    41600  41.6           0.001          305.09484     -17606.737      161.49289     -17.412642      82310.232    
ec    41700  41.7           0.001          304.06385     -17606.28       160.94717     -35.138635      82310.232    
ec    41800  41.8           0.001          296.18812     -17601.057      156.77838     -78.270954      82310.232    
ec    41900  41.9           0.001          298.0149      -17600.989      157.74533     -16.776898      82310.232    
ec    42000  42             0.001          293.98172     -17598.506      155.61049     -50.225343      82310.232    
ec    42100  42.1           0.001          299.89139     -17601.882      158.7386      -91.06633       82310.232    
ec    42200  42.2           0.001          297.3037      -17601.141      157.36888     -50.462605      82310.232    
ec    42300  42.3           0.001          303.55128     -17606.214      160.67585     -27.872556      82310.232    
ec    42400  42.4           0.001          298.68636     -17605.628      158.10075     -90.568594      82310.232    
ec    42500  42.5           0.001          302.82234     -17607.217      160.29001     -10.918734      82310.232    
ec    42600  42.6           0.001          299.78799     -17601.235      158.68387     -16.489899      82310.232    
ec    42700  42.7           0.001          295.72368     -17597.69       156.53254     -113.91405      82310.232    
ec    42800  42.8           0.001          304.14087     -17602.71       160.98793     -32.794434      82310.232    
ec    42900  42.9           0.001          297.77798     -17602.613      157.61993     -66.613859      82310.232    
ec    43000  43             0.001          296.96985     -17607.283      157.19217     -49.198145      82310.232    
ec    43100  43.1           0.001          292.72353     -17606.011      154.9445      -141.39535      82310.232    
ec    43200  43.2           0.001          299.16995     -17606.384      158.35673     -88.823642      82310.232    
ec    43300  43.3           0.001          290.21336     -17598.588      153.61582     -88.083772      82310.232    
ec    43400  43.4           0.001          301.86019     -17601.719      159.78072     -63.134809      82310.232    
ec    43500  43.5           0.001          294.32211     -17596.706      155.79066     -64.987808      82310.232    
ec    43600  43.6           0.001          300.83478     -17601.817      159.23795     -15.926497      82310.232    
ec    43700  43.7           0.001          296.09584     -17604.069      156.72954     -95.629397      82310.232    
ec    43800  43.8           0.001          294.51074     -17604.403      155.89051     -105.65667      82310.232    
ec    43900  43.9           0.001          301.97803     -17605.449      159.8431      -74.305781      82310.232    
ec    44000  44             0.001          299.24781     -17602.178      158.39794     -36.907698      82310.232    
ec    44100  44.1           0.001          300.86639     -17602.151      159.25468     -20.738824      82310.232    
ec    44200  44.2           0.001          306.66478     -17604.638      162.32389     -22.806623      82310.232    
ec    44300  44.3           0.001          292.05291     -17597.764      154.58953     -101.87148      82310.232    
ec    44400  44.4           0.001          300.92621     -17605.503      159.28635     -41.917102      82310.232    
ec    44500  44.5           0.001          301.37412     -17606.989      159.52344     -62.918726      82310.232    
ec    44600  44.6           0.001          298.65099     -17602.17       158.08203     -71.513487      82310.232    
ec    44700  44.7           0.001          302.73524     -17601.267      160.24391     -41.536856      82310.232    
ec    44800  44.8           0.001          302.47778     -17601.321      160.10763      12.784832      82310.232    
ec    44900  44.9           0.001          300.30407     -17601.536      158.95704      58.060175      82310.232    
ec    45000  45             0.001          295.41729     -17602.769      156.37036     -94.608909      82310.232    
ec    45100  45.1           0.001          290.18335     -17602.828      153.59994     -104.92515      82310.232    
ec    45200  45.2           0.001          287.94128     -17601.662      152.41316     -109.70094      82310.232    
ec    45300  45.3           0.001          306.42767     -17606.046      162.19838      34.529399      82310.232    
ec    45400  45.4           0.001          302.24613     -17601.294      159.98501     -2.9528284      82310.232    
ec    45500  45.5           0.001          305.62063     -17601.469      161.7712       23.021502      82310.232    
ec    45600  45.6           0.001          297.48952     -17599.579      157.46724     -7.2214392      82310.232    
ec    45700  45.7           0.001          297.14009     -17602.676      157.28228     -44.289322      82310.232    
ec    45800  45.8           0.001          299.69378     -17604.967      158.634       -114.13107      82310.232    
ec    45900  45.9           0.001          301.82207     -17603.996      159.76055     -30.478579      82310.232    
ec    46000  46             0.001          299.93808     -17601.618      158.76332     -11.688787      82310.232    
ec    46100  46.1           0.001          304.80386     -17603.767      161.33887      25.444454      82310.232    
ec    46200  46.2           0.001          293.19861     -17598.978      155.19597     -43.23172       82310.232    
ec    46300  46.3           0.001          297.43024     -17602.851      157.43586     -108.37786      82310.232    
ec    46400  46.4           0.001          299.32603     -17603.259      158.43934     -68.684171      82310.232    
ec    46500  46.5           0.001          304.10677     -17601.504      160.96988      8.9833891      82310.232    
ec    46600  46.6           0.001          297.46118     -17597.097      157.45224     -18.635821      82310.232    
ec    46700  46.7           0.001          302.79595     -17602.505      160.27604      8.8836261      82310.232    
ec    46800  46.8           0.001          301.07005     -17606.784      159.36249      2.9496154      82310.232    
ec    46900  46.9           0.001          292.55656     -17601.937      154.85613     -52.440023      82310.232    
ec    47000  47             0.001          298.39511     -17601.992      157.94659     -78.053255      82310.232    
ec    47100  47.1           0.001          293.83706     -17597.653      155.53392     -105.00392      82310.232    
ec    47200  47.2           0.001          293.88782     -17597.725      155.56079     -115.07256      82310.232    
ec    47300  47.3           0.001          307.28515     -17604.929      162.65227     -10.236397      82310.232    
ec    47400  47.4           0.001          300.41859     -17602.242      159.01766      33.081691      82310.232    
ec    47500  47.5           0.001          299.94075     -17602.48       158.76473     -33.663449      82310.232    
ec    47600  47.6           0.001          300.8894      -17602.266      159.26687     -66.686291      82310.232    
ec    47700  47.7           0.001          304.09051     -17602.499      160.96128      5.7258536      82310.232    
ec    47800  47.8           0.001          296.28574     -17597.789      156.83006     -27.691447      82310.232    
ec    47900  47.9           0.001          304.18661     -17603.393      161.01215     -0.84510934     82310.232    
ec    48000  48             0.001          296.93901     -17602.786      157.17584     -41.895056      82310.232    
ec    48100  48.1           0.001          298.73135     -17605.262      158.12456     -18.541961      82310.232    
ec    48200  48.2           0.001          295.3646      -17602.068      156.34248     -55.930963      82310.232    
ec    48300  48.3           0.001          305.70252     -17602.28       161.81455      15.294674      82310.232    
ec    48400  48.4           0.001          304.49346     -17601.866      161.17457     -19.052107      82310.232    
ec    48500  48.5           0.001          301.97516     -17603.329      159.84158     -28.448283      82310.232    
ec    48600  48.6           0.001          297.28046     -17603.582      157.35658     -36.637537      82310.232    
ec    48700  48.7           0.001          292.85591     -17601.558      155.01458     -88.047207      82310.232    
ec    48800  48.8           0.001          301.64523     -17600.382      159.66694     -11.354092      82310.232    
ec    48900  48.9           0.001          302.26911     -17598.798      159.99717      11.320665      82310.232    
ec    49000  49             0.001          296.86088     -17599.277      157.13449     -64.504571      82310.232    
ec    49100  49.1           0.001          294.56465     -17601.349      155.91905     -103.63847      82310.232    
ec    49200  49.2           0.001          301.31041     -17604.882      159.48971     -51.133117      82310.232    
ec    49300  49.3           0.001          307.3367      -17606.185      162.67955     -31.528397      82310.232    
ec    49400  49.4           0.001          303.6914      -17598.727      160.75002      15.225257      82310.232    
ec    49500  49.5           0.001          311.16436     -17601.522      164.70561      101.21641      82310.232    
ec    49600  49.6           0.001          301.02623     -17600.26       159.33929     -53.10903       82310.232    
ec    49700  49.7           0.001          307.29317     -17606.05       162.65651     -30.347274      82310.232    
ec    49800  49.8           0.001          300.44257     -17603.825      159.03035     -37.097135      82310.232    
ec    49900  49.9           0.001          301.74772     -17603.509      159.72119     -23.953286      82310.232    
ec    50000  50             0.001          300.58973     -17598.887      159.10824     -27.34073       82310.232    
ec    50100  50.1           0.001          302.64726     -17597.009      160.19733      42.929195      82310.232    
ec    50200  50.2           0.001          298.09072     -17598.012      157.78547     -109.63342      82310.232    
ec    50300  50.3           0.001          301.80703     -17602.09       159.75259     -76.052618      82310.232    
ec    50400  50.4           0.001          299.60259     -17602.266      158.58573     -50.653354      82310.232    
ec    50500  50.5           0.001          296.34991     -17601.421      156.86402     -40.668518      82310.232    
ec    50600  50.6           0.001          293.19342     -17601.804      155.19323     -56.949395      82310.232    
ec    50700  50.7           0.001          299.49539     -17605.923      158.52899     -24.995371      82310.232    
ec    50800  50.8           0.001          307.64651     -17606.826      162.84354     -54.686976      82310.232    
ec    50900  50.9           0.001          302.52782     -17601.194      160.13411     -21.218757      82310.232    
ec    51000  51             0.001          297.44131     -17598.955      157.44172      5.7683621      82310.232    
ec    51100  51.1           0.001          302.52857     -17604.038      160.13451     -20.730956      82310.232    
ec    51200  51.2           0.001          296.41717     -17605.799      156.89963     -93.832424      82310.232    
ec    51300  51.3           0.001          297.43462     -17605.747      157.43818     -68.545645      82310.232    
ec    51400  51.4           0.001          297.74597     -17602.942      157.60299     -74.195679      82310.232    
ec    51500  51.5           0.001          301.09704     -17602.926      159.37677     -17.697527      82310.232    
ec    51600  51.6           0.001          297.19009     -17600.095      157.30875     -63.35436       82310.232    
ec    51700  51.7           0.001          302.79222     -17602.855      160.27407     -110.97934      82310.232    
ec    51800  51.8           0.001          301.34378     -17601.518      159.50738     -12.002861      82310.232    
ec    51900  51.9           0.001          294.31257     -17599.194      155.78562     -23.931728      82310.232    
ec    52000  52             0.001          304.627       -17606.444      161.24525     -20.861154      82310.232    
ec    52100  52.1           0.001          299.89617     -17605.359      158.74113     -45.167294      82310.232    
ec    52200  52.2           0.001          299.74482     -17603.503      158.66102     -33.211458      82310.232    
ec    52300  52.3           0.001          308.97925     -17603.537      163.54899      42.961812      82310.232    
ec    52400  52.4           0.001          307.59913     -17602.258      162.81846      93.575372      82310.232    
ec    52500  52.5           0.001          297.36021     -17600.27       157.39879     -85.955059      82310.232    
ec    52600  52.6           0.001          294.14198     -17599.519      155.69532     -53.122623      82310.232    
ec    52700  52.7           0.001          303.03499     -17603.838      160.40257     -35.714158      82310.232    
ec    52800  52.8           0.001          299.70622     -17602.566      158.64059     -23.907901      82310.232    
ec    52900  52.9           0.001          301.23316     -17605.992      159.44882     -31.861128      82310.232    
ec    53000  53             0.001          295.0728      -17605.031      156.18802     -41.467918      82310.232    
ec    53100  53.1           0.001          294.6851      -17601.899      155.98281     -18.05233       82310.232    
ec    53200  53.2           0.001          302.92682     -17602.057      160.34531     -4.7725565      82310.232    
ec    53300  53.3           0.001          297.07055     -17598.918      157.24547     -70.228143      82310.232    
ec    53400  53.4           0.001          299.40304     -17601.511      158.48011     -34.054428      82310.232    
ec    53500  53.5           0.001          294.6005      -17601.837      155.93802     -48.04429       82310.232    
ec    53600  53.6           0.001          293.70278     -17605.304      155.46284     -92.858023      82310.232    
ec    53700  53.7           0.001          298.60547     -17610.521      158.05794     -59.453233      82310.232    
ec    53800  53.8           0.001          296.95176     -17604.711      157.18259     -42.748671      82310.232    
ec    53900  53.9           0.001          299.41125     -17602.353      158.48445     -24.354828      82310.232    
ec    54000  54             0.001          302.45693     -17601.575      160.09659     -1.4122348      82310.232    
ec    54100  54.1           0.001          299.04538     -17599.692      158.29079     -57.202851      82310.232    
ec    54200  54.2           0.001          300.48232     -17602.246      159.05139     -32.396842      82310.232    
ec    54300  54.3           0.001          302.70958     -17607.076      160.23032     -64.613237      82310.232    
ec    54400  54.4           0.001          296.4727      -17605.71       156.92902     -116.65445      82310.232    
ec    54500  54.5           0.001          296.68247     -17601.916      157.04005     -119.32009      82310.232    
ec    54600  54.6           0.001          296.65606     -17599.644      157.02607     -88.75269       82310.232    
ec    54700  54.7           0.001          294.56959     -17598.779      155.92166     -99.749032      82310.232    
ec    54800  54.8           0.001          303.91774     -17604.114      160.86983     -3.0908273      82310.232    
ec    54900  54.9           0.001          300.70164     -17603.78       159.16748     -36.710583      82310.232    
ec    55000  55             0.001          297.93319     -17604.349      157.70208     -40.342968      82310.232    
ec    55100  55.1           0.001          297.73953     -17604.232      157.59958     -13.808948      82310.232    
ec    55200  55.2           0.001          302.29937     -17602.41       160.01319      58.91685       82310.232    
ec    55300  55.3           0.001          299.55367     -17598.782      158.55984     -25.697918      82310.232    
ec    55400  55.4           0.001          298.44711     -17598.555      157.97411     -22.254535      82310.232    
ec    55500  55.5           0.001          292.84392     -17600.222      155.00823     -77.283902      82310.232    
ec    55600  55.6           0.001          296.22902     -17604.499      156.80003     -143.63548      82310.232    
ec    55700  55.7           0.001          304.63911     -17606.456      161.25166     -40.212559      82310.232    
ec    55800  55.8           0.001          302.71841     -17602.567      160.235       -18.789675      82310.232    
ec    55900  55.9           0.001          306.09789     -17603.304      162.02382      3.3428138      82310.232    
ec    56000  56             0.001          297.54763     -17600.454      157.498       -50.206425      82310.232    
ec    56100  56.1           0.001          300.70621     -17607.094      159.1699      -82.463692      82310.232    
ec    56200  56.2           0.001          291.85037     -17602.759      154.48233     -138.30314      82310.232    
ec    56300  56.3           0.001          303.52544     -17605.287      160.66217     -71.116763      82310.232    
ec    56400  56.4           0.001          300.21847     -17602.17       158.91173     -18.833288      82310.232    
ec    56500  56.5           0.001          295.1538      -17599.258      156.2309      -66.502783      82310.232    
ec    56600  56.6           0.001          309.04797     -17605.609      163.58536      22.850043      82310.232    
ec    56700  56.7           0.001          302.40744     -17602.006      160.0704      -40.144871      82310.232    
ec    56800  56.8           0.001          294.93284     -17599.545      156.11394     -42.306822      82310.232    
ec    56900  56.9           0.001          294.69958     -17602.181      155.99047     -167.17453      82310.232    
ec    57000  57             0.001          295.29831     -17602.316      156.30739     -125.2638       82310.232    
ec    57100  57.1           0.001          297.08703     -17599.406      157.25419     -121.35986      82310.232    
ec    57200  57.2           0.001          307.27955     -17601.467      162.6493       20.653298      82310.232    
ec    57300  57.3           0.001          307.16704     -17602.646      162.58975      42.976723      82310.232    
ec    57400  57.4           0.001          305.36181     -17603.615      161.6342      -10.492775      82310.232    
ec    57500  57.5           0.001          295.3774      -17600.204      156.34925     -112.6465       82310.232    
ec    57600  57.6           0.001          297.30215     -17601.504      157.36806     -34.664798      82310.232    
ec    57700  57.7           0.001          301.65368     -17603.223      159.67142     -44.140607      82310.232    
ec    57800  57.8           0.001          305.0337      -17600.766      161.46053     -3.5910039      82310.232    
ec    57900  57.9           0.001          312.39913     -17602.185      165.3592       87.597779      82310.232    
ec    58000  58             0.001          307.08054     -17602.887      162.54396      40.965671      82310.232    
ec    58100  58.1           0.001          295.371       -17600.218      156.34586     -56.52777       82310.232    
ec    58200  58.2           0.001          302.08807     -17604.429      159.90134     -24.539593      82310.232    
ec    58300  58.3           0.001          299.63512     -17602.642      158.60295     -70.327487      82310.232    
ec    58400  58.4           0.001          303.01905     -17601.844      160.39413     -53.154887      82310.232    
ec    58500  58.5           0.001          306.07319     -17599.327      162.01075      29.358983      82310.232    
ec    58600  58.6           0.001          304.55854     -17600.085      161.20901      20.722588      82310.232    
ec    58700  58.7           0.001          299.56739     -17602.373      158.5671      -81.300066      82310.232    
ec    58800  58.8           0.001          299.18228     -17602.907      158.36325     -38.198928      82310.232    
ec    58900  58.9           0.001          302.95708     -17603.003      160.36133      56.2922        82310.232    
ec    59000  59             0.001          302.14242     -17601.379      159.93011      40.12343       82310.232    
ec    59100  59.1           0.001          304.58146     -17603.029      161.22115      9.9161111      82310.232    
ec    59200  59.2           0.001          302.58755     -17605.785      160.16573     -75.446079      82310.232    
ec    59300  59.3           0.001          300.11659     -17606.221      158.8578      -8.5533068      82310.232    
ec    59400  59.4           0.001          289.10765     -17598.735      153.03054     -47.648876      82310.232    
ec    59500  59.5           0.001          306.86115     -17602.768      162.42784      4.6449363      82310.232    
ec    59600  59.6           0.001          303.30754     -17601.174      160.54684     -63.745779      82310.232    
ec    59700  59.7           0.001          297.1279      -17600.473      157.27583     -53.285915      82310.232    
ec    59800  59.8           0.001          302.59647     -17605.459      160.17045     -38.039147      82310.232    
ec    59900  59.9           0.001          298.6307      -17605.137      158.07129     -83.544277      82310.232    
Fix halt condition for fix-id myhalt met on step 60000 with value 60 (../fix_halt.cpp:240)
ec    60000  60             0.001          285.68987     -17601.204      151.22145     -198.98666      82310.232    
Loop time of 56.3407 on 2 procs for 30000 steps with 4096 atoms

Performance: 46.006 ns/day, 0.522 hours/ns, 532.474 timesteps/s, 2.181 Matom-step/s
99.5% CPU use with 2 MPI tasks x no OpenMP threads

MPI task timing breakdown:
Section |  min time  |  avg time  |  max time  |%varavg| %total
---------------------------------------------------------------
Pair    | 54.142     | 54.288     | 54.433     |   2.0 | 96.36
Neigh   | 0          | 0          | 0          |   0.0 |  0.00
Comm    | 1.0184     | 1.1613     | 1.3042     |  13.3 |  2.06
Output  | 0.0037287  | 0.0057607  | 0.0077928  |   2.7 |  0.01
Modify  | 0.65328    | 0.65529    | 0.65729    |   0.2 |  1.16
Other   |            | 0.2309     |            |       |  0.41

Nlocal:           2048 ave        2056 max        2040 min
Histogram: 1 0 0 0 0 0 0 0 0 1
Nghost:           3219 ave        3227 max        3211 min
Histogram: 1 0 0 0 0 0 0 0 0 1
Neighs:              0 ave           0 max           0 min
Histogram: 2 0 0 0 0 0 0 0 0 0
FullNghs:        70362 ave       70587 max       70137 min
Histogram: 1 0 0 0 0 0 0 0 0 1

Total # of neighbors = 140724
Ave neighs/atom = 34.356445
Neighbor list builds = 0
Dangerous builds = 0

write_data cell.data_${temp}
write_data cell.data_300
System init for write_data ...
Total wall time: 0:01:52
