

units metal
timestep 0.001
boundary p p p

lattice         diamond 5.43
Lattice spacing in x,y,z = 5.43 5.43 5.43
region          box block 0 ${N} 0 ${N} 0 ${N}
region          box block 0 2 0 ${N} 0 ${N}
region          box block 0 2 0 2 0 ${N}
region          box block 0 2 0 2 0 2
create_box      1 box
Created orthogonal box = (0 0 0) to (10.86 10.86 10.86)
  1 by 2 by 3 MPI processor grid
create_atoms    1 box
Created 64 atoms
  using lattice units in orthogonal box = (0 0 0) to (10.86 10.86 10.86)
  create_atoms CPU = 0.000 seconds

timestep ${dt}
timestep 1e-3

mass 1 28.0855
labelmap atom 1 Si

pair_style sw
pair_coeff * * Si.sw Si
Reading sw potential file Si.sw with DATE: 2007-06-11


velocity all create ${temp} 4928459 mom yes rot yes dist gaussian
velocity all create 300 4928459 mom yes rot yes dist gaussian

variable t equal time
#fix myhalt all halt 100 v_t >= 30.0 error continue

#fix NVE all nve

#run 10000000

#unfix myhalt

fix NPT all npt temp ${temp} ${temp} ${tau_T} iso 0.0 0.0 1.0
fix NPT all npt temp 300 ${temp} ${tau_T} iso 0.0 0.0 1.0
fix NPT all npt temp 300 300 ${tau_T} iso 0.0 0.0 1.0
fix NPT all npt temp 300 300 0.1 iso 0.0 0.0 1.0



fix myhalt all halt 100 v_t >= 30.0 error continue

run 10000000

CITE-CITE-CITE-CITE-CITE-CITE-CITE-CITE-CITE-CITE-CITE-CITE-CITE

Your simulation uses code contributions which should be cited:

- Type Label Framework: https://doi.org/10.1021/acs.jpcb.3c08419

@Article{Gissinger24,
 author = {Jacob R. Gissinger, Ilia Nikiforov, Yaser Afshar, Brendon Waters, Moon-ki Choi, Daniel S. Karls, Alexander Stukowski, Wonpil Im, Hendrik Heinz, Axel Kohlmeyer, and Ellad B. Tadmor},
 title = {Type Label Framework for Bonded Force Fields in LAMMPS},
 journal = {J. Phys. Chem. B},
 year =    2024,
 volume =  128,
 number =  13,
 pages =   {3282--3297}
}

CITE-CITE-CITE-CITE-CITE-CITE-CITE-CITE-CITE-CITE-CITE-CITE-CITE

Neighbor list info ...
  update: every = 1 steps, delay = 0 steps, check = yes
  max neighbors/atom: 2000, page size: 100000
  master list distance cutoff = 5.77118
  ghost atom cutoff = 5.77118
  binsize = 2.88559, bins = 4 4 4
  1 neighbor lists, perpetual/occasional/extra = 1 0 0
  (1) pair sw, perpetual
      attributes: full, newton on
      pair build: full/bin/atomonly
      stencil: full/bin/3d
      bin: standard
Per MPI rank memory allocation (min/avg/max) = 3.201 | 3.201 | 3.201 Mbytes
   Step          Temp          E_pair         E_mol          TotEng         Press          Volume    
         0   300           -277.54229      0             -275.09927      2569.8731      1280.8241    
Fix halt condition for fix-id myhalt met on step 30000 with value 30 (../fix_halt.cpp:240)
Loop time of 0.918437 on 6 procs for 30000 steps with 64 atoms

Performance: 2822.185 ns/day, 0.009 hours/ns, 32664.179 timesteps/s, 2.091 Matom-step/s
99.9% CPU use with 6 MPI tasks x no OpenMP threads

MPI task timing breakdown:
Section |  min time  |  avg time  |  max time  |%varavg| %total
---------------------------------------------------------------
Pair    | 0.24304    | 0.31636    | 0.35988    |   8.8 | 34.45
Neigh   | 0          | 0          | 0          |   0.0 |  0.00
Comm    | 0.36789    | 0.40689    | 0.47661    |   7.2 | 44.30
Output  | 0          | 0          | 0          |   0.0 |  0.00
Modify  | 0.1528     | 0.1567     | 0.16091    |   0.7 | 17.06
Other   |            | 0.03849    |            |       |  4.19

Nlocal:        10.6667 ave          12 max           8 min
Histogram: 2 0 0 0 0 0 0 0 0 4
Nghost:            296 ave         301 max         290 min
Histogram: 2 0 0 0 0 0 2 0 0 2
Neighs:              0 ave           0 max           0 min
Histogram: 6 0 0 0 0 0 0 0 0 0
FullNghs:      362.667 ave         408 max         272 min
Histogram: 2 0 0 0 0 0 0 0 0 4

Total # of neighbors = 2176
Ave neighs/atom = 34
Neighbor list builds = 0
Dangerous builds = 0
compute 1 all vacf

thermo 100
thermo_style	custom step time dt temp pe ke press vol c_1[4]
thermo_modify	line one flush yes format 1 "ec %8lu" flush yes


unfix myhalt

fix myhalt all halt 100 v_t >= 60.0 error continue

unfix NPT

fix NVT all nvt temp ${temp} ${temp} ${tau_T}
fix NVT all nvt temp 300 ${temp} ${tau_T}
fix NVT all nvt temp 300 300 ${tau_T}
fix NVT all nvt temp 300 300 0.1

run 10000000
Per MPI rank memory allocation (min/avg/max) = 3.576 | 3.576 | 3.576 Mbytes
   Step          Time            Dt            Temp          PotEng         KinEng         Press          Volume         c_1[4]    
ec    30000  30             0.001          290.15179     -274.69875      2.3628189     -9228.227       1298.2075      25.366446    
ec    30100  30.1           0.001          296.29314     -274.86195      2.4128303     -9226.8573      1298.2075     -12.782629    
ec    30200  30.2           0.001          275.29275     -275.191        2.241816      -9272.8778      1298.2075     -0.43283593   
ec    30300  30.3           0.001          262.86023     -275.40499      2.1405731     -9702.525       1298.2075      3.749795     
ec    30400  30.4           0.001          272.63868     -275.24677      2.2202029     -9463.8996      1298.2075     -2.8704613    
ec    30500  30.5           0.001          287.74495     -275.10642      2.3432191     -9322.9738      1298.2075     -1.0127614    
ec    30600  30.6           0.001          289.79876     -274.94587      2.3599441     -9371.1994      1298.2075      2.3647724    
ec    30700  30.7           0.001          357.00493     -275.29431      2.9072301     -9169.3137      1298.2075     -0.70486959   
ec    30800  30.8           0.001          359.7322      -275.17202      2.9294393     -8875.0932      1298.2075     -7.7306723    
ec    30900  30.9           0.001          311.44006     -274.88747      2.5361776     -8979.7963      1298.2075      6.2504606    
ec    31000  31             0.001          286.13223     -275.13845      2.3300861     -9604.0111      1298.2075     -6.773966     
ec    31100  31.1           0.001          244.018       -275.02006      1.9871335     -9503.9872      1298.2075      9.4686334    
ec    31200  31.2           0.001          238.43144     -274.73706      1.94164       -9648.0336      1298.2075     -1.1662316    
ec    31300  31.3           0.001          296.20051     -274.58623      2.412076      -9111.0489      1298.2075     -5.3076413    
ec    31400  31.4           0.001          343.23662     -274.97754      2.7951094     -9114.5164      1298.2075      7.0828174    
ec    31500  31.5           0.001          337.07931     -275.21017      2.744968      -9395.9578      1298.2075     -0.32211886   
ec    31600  31.6           0.001          275.74922     -274.97026      2.2455332     -9356.6517      1298.2075     -2.6488567    
ec    31700  31.7           0.001          319.26583     -275.38766      2.5999059     -9352.0985      1298.2075      1.9986488    
ec    31800  31.8           0.001          306.97723     -274.90619      2.499835      -9195.1267      1298.2075     -2.1475425    
ec    31900  31.9           0.001          330.19734     -274.48164      2.6889254     -8993.1573      1298.2075     -2.4082544    
ec    32000  32             0.001          329.53788     -274.79093      2.6835552     -8850.0764      1298.2075     -2.4439623    
ec    32100  32.1           0.001          304.28152     -275.10479      2.4778828     -9329.7654      1298.2075      4.1955672    
ec    32200  32.2           0.001          286.06312     -275.1091       2.3295233     -9336.6376      1298.2075     -2.5246861    
ec    32300  32.3           0.001          259.06182     -274.81689      2.1096412     -9240.8172      1298.2075      0.44933552   
ec    32400  32.4           0.001          365.86524     -275.17952      2.979383      -8996.8318      1298.2075      2.6948557    
ec    32500  32.5           0.001          320.8914      -274.37795      2.6131435     -8917.9808      1298.2075     -0.80279281   
ec    32600  32.6           0.001          332.01399     -274.81423      2.7037191     -9231.3513      1298.2075      3.4453673    
ec    32700  32.7           0.001          321.08111     -275.04791      2.6146884     -9460.4394      1298.2075     -0.6921324    
ec    32800  32.8           0.001          253.60955     -274.67235      2.0652413     -9484.9399      1298.2075      0.80293193   
ec    32900  32.9           0.001          318.84177     -275.32039      2.5964526     -9531.7739      1298.2075     -5.7054288    
ec    33000  33             0.001          250.4623      -274.8356       2.039612      -9245.1201      1298.2075      5.6654339    
ec    33100  33.1           0.001          296.95688     -275.07495      2.4182354     -9256.066       1298.2075     -5.4956865    
ec    33200  33.2           0.001          356.8184      -275.17265      2.905711      -9426.9677      1298.2075     -0.087405356  
ec    33300  33.3           0.001          299.1799      -274.52081      2.4363384     -8839.4067      1298.2075      1.8845264    
ec    33400  33.4           0.001          306.00427     -274.96602      2.4919119     -9365.1668      1298.2075      0.24029135   
ec    33500  33.5           0.001          303.3454      -275.44749      2.4702596     -9650.4565      1298.2075     -1.5593145    
ec    33600  33.6           0.001          267.91097     -275.1          2.1817033     -9401.2813      1298.2075     -1.0267899    
ec    33700  33.7           0.001          327.96736     -275.29839      2.6707658     -9123.6531      1298.2075      3.6252179    
ec    33800  33.8           0.001          303.77227     -274.87767      2.4737358     -9087.0783      1298.2075      2.4670959    
ec    33900  33.9           0.001          311.44979     -274.93089      2.5362569     -9113.2498      1298.2075     -3.3538676    
ec    34000  34             0.001          277.7563      -274.747        2.2618777     -9267.0996      1298.2075     -0.96797943   
ec    34100  34.1           0.001          290.02765     -274.93799      2.361808      -9595.5276      1298.2075      5.0982126    
ec    34200  34.2           0.001          302.0959      -275.14151      2.4600845     -9548.3434      1298.2075     -8.1216316    
ec    34300  34.3           0.001          276.33373     -275.15227      2.2502931     -9640.6656      1298.2075      2.946708     
ec    34400  34.4           0.001          305.00868     -275.59281      2.4838043     -9712.9194      1298.2075      0.66784185   
ec    34500  34.5           0.001          261.76573     -275.02113      2.1316602     -9590.7658      1298.2075      2.4860725    
ec    34600  34.6           0.001          313.02219     -274.90363      2.5490615     -9310.2058      1298.2075     -7.013044     
ec    34700  34.7           0.001          286.77911     -274.58761      2.3353539     -9280.1112      1298.2075      4.8835325    
ec    34800  34.8           0.001          290.1416      -274.8313       2.362736      -9322.8036      1298.2075      0.099509199  
ec    34900  34.9           0.001          286.29335     -275.25734      2.3313982     -9512.46        1298.2075      1.1887901    
ec    35000  35             0.001          267.62845     -275.5707       2.1794026     -9597.1371      1298.2075     -1.2376184    
ec    35100  35.1           0.001          280.79681     -275.71007      2.2866377     -9817.3497      1298.2075     -0.80751839   
ec    35200  35.2           0.001          298.04148     -275.11871      2.4270677     -9223.2054      1298.2075      6.172949     
ec    35300  35.3           0.001          316.24783     -274.87476      2.5753292     -8933.0066      1298.2075     -11.081738    
ec    35400  35.4           0.001          316.44737     -274.78916      2.5769541     -9314.3889      1298.2075      7.3718413    
ec    35500  35.5           0.001          290.19574     -274.87121      2.3631768     -9428.7696      1298.2075     -2.1036752    
ec    35600  35.6           0.001          276.5502      -275.15762      2.2520559     -9564.2094      1298.2075     -0.55282934   
ec    35700  35.7           0.001          267.51984     -275.16005      2.1785182     -9592.633       1298.2075     -2.9884231    
ec    35800  35.8           0.001          283.41261     -274.7473       2.3079392     -9216.9164      1298.2075      6.4018126    
ec    35900  35.9           0.001          303.05578     -274.46008      2.4679011     -8695.06        1298.2075     -0.43425924   
ec    36000  36             0.001          331.19926     -274.96242      2.6970845     -9434.0563      1298.2075     -2.943063     
ec    36100  36.1           0.001          305.08612     -275.15486      2.484435      -9546.2622      1298.2075      1.9326896    
ec    36200  36.2           0.001          290.93472     -275.18663      2.3691947     -9233.7094      1298.2075     -1.6361469    
ec    36300  36.3           0.001          335.43641     -275.44346      2.7315893     -9220.7887      1298.2075      3.8548839    
ec    36400  36.4           0.001          331.49944     -274.8192       2.6995289     -8692.0777      1298.2075     -5.2835966    
ec    36500  36.5           0.001          336.03427     -274.34852      2.7364578     -7980.4605      1298.2075      3.9305413    
ec    36600  36.6           0.001          324.12426     -274.70476      2.6394699     -8412.4364      1298.2075     -1.4222153    
ec    36700  36.7           0.001          307.4193      -275.02803      2.503435      -9221.2848      1298.2075     -3.7434868    
ec    36800  36.8           0.001          308.89845     -275.26176      2.5154803     -9787.3085      1298.2075      2.2418004    
ec    36900  36.9           0.001          276.04072     -275.03363      2.247907      -9676.4696      1298.2075      2.9125507    
ec    37000  37             0.001          292.09585     -274.8224       2.3786502     -9423.249       1298.2075     -1.848099     
ec    37100  37.1           0.001          328.66136     -274.55863      2.6764174     -8836.6085      1298.2075      1.7013342    
ec    37200  37.2           0.001          319.36385     -274.68688      2.6007041     -8788.3171      1298.2075      1.0518116    
ec    37300  37.3           0.001          273.97491     -274.81654      2.2310843     -9205.7596      1298.2075     -2.9273371    
ec    37400  37.4           0.001          316.72856     -275.27034      2.5792439     -9452.4975      1298.2075      1.9437685    
ec    37500  37.5           0.001          298.60731     -275.0747       2.4316755     -9077.8803      1298.2075      1.7986979    
ec    37600  37.6           0.001          274.71087     -274.70428      2.2370775     -8909.8908      1298.2075     -4.2339655    
ec    37700  37.7           0.001          348.82553     -274.80291      2.8406221     -8805.8173      1298.2075      0.60673922   
ec    37800  37.8           0.001          341.51448     -274.5334       2.7810853     -8334.9215      1298.2075      1.6333403    
ec    37900  37.9           0.001          333.40384     -275.15414      2.7150372     -8760.0485      1298.2075     -1.596298     
ec    38000  38             0.001          346.1974      -275.54681      2.8192202     -9332.0878      1298.2075     -2.2972952    
ec    38100  38.1           0.001          289.1091      -275.0737       2.3543279     -9406.4123      1298.2075      3.2231295    
ec    38200  38.2           0.001          287.31522     -274.85271      2.3397197     -9619.66        1298.2075      1.1448979    
ec    38300  38.3           0.001          282.36838     -274.39833      2.2994356     -9232.5015      1298.2075     -0.28632945   
ec    38400  38.4           0.001          301.82829     -274.29088      2.4579052     -8760.9911      1298.2075      0.89477461   
ec    38500  38.5           0.001          279.11038     -274.74639      2.2729044     -9108.7974      1298.2075     -0.62359681   
ec    38600  38.6           0.001          280.51827     -275.14939      2.2843694     -9515.6992      1298.2075      1.2765731    
ec    38700  38.7           0.001          334.35494     -275.55066      2.7227824     -9502.324       1298.2075     -2.4395519    
ec    38800  38.8           0.001          290.13156     -274.84188      2.3626542     -9093.9752      1298.2075      1.8987758    
ec    38900  38.9           0.001          314.59192     -274.63848      2.5618444     -8946.7524      1298.2075     -0.10490687   
ec    39000  39             0.001          329.3665      -274.84821      2.6821596     -9029.3381      1298.2075      0.39571118   
ec    39100  39.1           0.001          277.59814     -275.24758      2.2605897     -9495.4815      1298.2075     -6.4102918    
ec    39200  39.2           0.001          307.96774     -275.50276      2.5079011     -9423.8823      1298.2075      7.0317115    
ec    39300  39.3           0.001          292.86558     -275.01989      2.3849184     -9061.4393      1298.2075     -0.23102224   
ec    39400  39.4           0.001          356.48566     -275.17845      2.9030014     -8991.7175      1298.2075     -5.1948935    
ec    39500  39.5           0.001          299.2956      -274.70329      2.4372805     -9199.2868      1298.2075      5.513357     
ec    39600  39.6           0.001          259.52316     -274.85496      2.1133981     -9639.0393      1298.2075      1.5950378    
ec    39700  39.7           0.001          269.10074     -275.42972      2.1913921     -10034.701      1298.2075     -1.2682589    
ec    39800  39.8           0.001          235.00923     -274.96369      1.9137716     -9655.4862      1298.2075     -2.847125     
ec    39900  39.9           0.001          306.23284     -275.14108      2.4937731     -9617.4686      1298.2075      6.9966741    
ec    40000  40             0.001          304.20232     -274.87206      2.4772379     -9229.3227      1298.2075     -6.9869734    
ec    40100  40.1           0.001          300.6547      -274.82091      2.4483482     -9106.738       1298.2075      0.98574036   
ec    40200  40.2           0.001          306.33711     -275.20444      2.4946223     -9546.9898      1298.2075     -0.60766896   
ec    40300  40.3           0.001          249.61464     -275.32858      2.0327091     -9860.958       1298.2075      3.5467251    
ec    40400  40.4           0.001          284.55983     -275.45968      2.3172814     -9754.086       1298.2075     -3.3628601    
ec    40500  40.5           0.001          298.69439     -275.15232      2.4323847     -9407.156       1298.2075     -2.1392919    
ec    40600  40.6           0.001          288.98255     -274.86477      2.3532973     -9282.7225      1298.2075      4.0958357    
ec    40700  40.7           0.001          340.20712     -275.20783      2.770439      -8992.6372      1298.2075      0.19280721   
ec    40800  40.8           0.001          305.26983     -274.99872      2.485931      -9184.916       1298.2075      0.27964206   
ec    40900  40.9           0.001          269.0033      -275.10631      2.1905986     -9598.8965      1298.2075     -0.50712354   
ec    41000  41             0.001          264.80638     -275.36372      2.1564214     -10053.028      1298.2075      1.0572006    
ec    41100  41.1           0.001          265.31513     -275.08013      2.1605643     -9842.0824      1298.2075     -3.4628003    
ec    41200  41.2           0.001          246.84469     -274.41021      2.0101524     -9329.9718      1298.2075      2.6946407    
ec    41300  41.3           0.001          321.73889     -274.97928      2.620045      -9414.9983      1298.2075     -2.0884042    
ec    41400  41.4           0.001          338.30222     -275.2902       2.7549266     -9454.2534      1298.2075      2.5733969    
ec    41500  41.5           0.001          270.56837     -275.0993       2.2033435     -9616.1565      1298.2075     -2.8502123    
ec    41600  41.6           0.001          258.16413     -275.41444      2.102331      -9811.4156      1298.2075      0.87840563   
ec    41700  41.7           0.001          258.81984     -275.50463      2.1076707     -9900.4962      1298.2075      0.62473362   
ec    41800  41.8           0.001          261.16202     -274.81727      2.1267439     -9355.7808      1298.2075      0.17886261   
ec    41900  41.9           0.001          303.84513     -274.82845      2.4743291     -9235.0191      1298.2075     -0.5008878    
ec    42000  42             0.001          365.50478     -275.25898      2.9764477     -8832.1928      1298.2075      1.7286062    
ec    42100  42.1           0.001          338.88812     -275.29843      2.7596978     -9006.1807      1298.2075     -0.17543105   
ec    42200  42.2           0.001          303.13513     -275.4374       2.4685473     -9398.1281      1298.2075     -2.1989597    
ec    42300  42.3           0.001          263.76639     -275.23243      2.1479524     -9694.7467      1298.2075      4.5811776    
ec    42400  42.4           0.001          269.39406     -274.62874      2.1937807     -9457.9977      1298.2075     -4.8799599    
ec    42500  42.5           0.001          282.03625     -274.41035      2.296731      -9341.8108      1298.2075     -1.2850896    
ec    42600  42.6           0.001          299.33778     -274.80914      2.437624      -9476.1179      1298.2075      3.0441865    
ec    42700  42.7           0.001          284.59599     -275.10468      2.3175759     -9756.3805      1298.2075     -1.0440064    
ec    42800  42.8           0.001          290.79083     -275.29276      2.3680229     -9964.0258      1298.2075      0.31095897   
ec    42900  42.9           0.001          283.48373     -274.96125      2.3085183     -9356.6991      1298.2075      1.0494541    
ec    43000  43             0.001          339.80023     -274.67148      2.7671255     -8844.9792      1298.2075     -0.24044954   
ec    43100  43.1           0.001          348.4652      -274.89571      2.8376877     -8930.3429      1298.2075     -1.0907212    
ec    43200  43.2           0.001          294.90611     -274.92597      2.4015352     -9240.9232      1298.2075      0.13315982   
ec    43300  43.3           0.001          328.05011     -275.42146      2.6714397     -9290.6877      1298.2075      4.0901949    
ec    43400  43.4           0.001          298.7298      -275.17453      2.432673      -9055.1209      1298.2075     -3.4905236    
ec    43500  43.5           0.001          315.59856     -275.00796      2.5700419     -8760.1471      1298.2075     -0.18123229   
ec    43600  43.6           0.001          351.40455     -274.53468      2.861624      -8336.9493      1298.2075     -2.6007767    
ec    43700  43.7           0.001          320.74298     -274.49129      2.6119349     -8803.8636      1298.2075      4.697619     
ec    43800  43.8           0.001          311.07835     -274.88716      2.5332321     -9460.5689      1298.2075     -5.3031869    
ec    43900  43.9           0.001          276.09766     -274.88083      2.2483707     -9749.5752      1298.2075      1.6907984    
ec    44000  44             0.001          298.4682      -275.18798      2.4305427     -9952.2768      1298.2075      4.6468773    
ec    44100  44.1           0.001          269.10944     -274.90345      2.1914629     -9848.6209      1298.2075     -4.5236127    
ec    44200  44.2           0.001          294.26039     -274.62624      2.3962769     -9294.0708      1298.2075      2.072946     
ec    44300  44.3           0.001          335.03307     -274.63519      2.7283047     -8817.8111      1298.2075     -1.9225537    
ec    44400  44.4           0.001          310.20308     -274.84059      2.5261044     -9020.9962      1298.2075      5.996204     
ec    44500  44.5           0.001          292.53565     -275.14002      2.3822316     -9289.9246      1298.2075     -7.2526637    
ec    44600  44.6           0.001          298.55231     -275.19613      2.4312276     -9109.3848      1298.2075      3.8171091    
ec    44700  44.7           0.001          345.43499     -275.40378      2.8130116     -9169.8219      1298.2075      1.012714     
ec    44800  44.8           0.001          320.66144     -274.85573      2.6112709     -8617.2182      1298.2075     -2.1520021    
ec    44900  44.9           0.001          368.03543     -274.67242      2.9970558     -8107.2242      1298.2075     -2.3092284    
ec    45000  45             0.001          435.24407     -275.18228      3.5443618     -8730.1407      1298.2075      1.3607147    
ec    45100  45.1           0.001          300.43703     -274.95816      2.4465757     -9393.5274      1298.2075      1.7719635    
ec    45200  45.2           0.001          274.41751     -274.98996      2.2346885     -9646.4368      1298.2075     -3.0618684    
ec    45300  45.3           0.001          263.69346     -274.945        2.1473584     -9981.0574      1298.2075      4.3643212    
ec    45400  45.4           0.001          252.53835     -274.64314      2.056518      -9882.2355      1298.2075     -2.2726584    
ec    45500  45.5           0.001          278.24558     -274.41307      2.265862      -9392.4179      1298.2075      0.26782301   
ec    45600  45.6           0.001          312.195       -274.53408      2.5423254     -9211.0492      1298.2075     -1.121218     
ec    45700  45.7           0.001          313.7045      -275.24089      2.5546178     -9640.2522      1298.2075      2.5183568    
ec    45800  45.8           0.001          269.57987     -275.17775      2.1952938     -9479.3933      1298.2075     -0.7819504    
ec    45900  45.9           0.001          304.74743     -275.28745      2.4816769     -9386.0276      1298.2075     -1.2335079    
ec    46000  46             0.001          319.78976     -274.97679      2.6041724     -9301.764       1298.2075     -2.4697949    
ec    46100  46.1           0.001          326.91786     -274.83357      2.6622193     -8856.6261      1298.2075      4.9105261    
ec    46200  46.2           0.001          354.8416      -275.2734       2.8896132     -8813.2702      1298.2075     -4.3582521    
ec    46300  46.3           0.001          271.01262     -275.3597       2.2069612     -9532.355       1298.2075      0.52406018   
ec    46400  46.4           0.001          287.17427     -275.46799      2.3385718     -9646.3466      1298.2075      3.0412591    
ec    46500  46.5           0.001          291.32531     -275.10977      2.3723754     -9507.7151      1298.2075     -2.0409669    
ec    46600  46.6           0.001          283.05319     -274.69706      2.3050123     -9566.4638      1298.2075     -1.060008     
ec    46700  46.7           0.001          320.88127     -274.92205      2.613061      -9636.5542      1298.2075      1.6776165    
ec    46800  46.8           0.001          267.19212     -274.75998      2.1758494     -9516.5963      1298.2075      3.6948486    
ec    46900  46.9           0.001          250.10711     -275.25625      2.0367195     -10192.079      1298.2075     -6.9824713    
ec    47000  47             0.001          264.38503     -275.32383      2.1529901     -9982.4974      1298.2075      3.841153     
ec    47100  47.1           0.001          250.90801     -274.86679      2.0432415     -9401.4437      1298.2075     -1.0961076    
ec    47200  47.2           0.001          292.85327     -274.94657      2.3848181     -9234.424       1298.2075      1.1497352    
ec    47300  47.3           0.001          309.11512     -274.9628       2.5172447     -9375.649       1298.2075     -2.7366609    
ec    47400  47.4           0.001          318.03865     -275.0423       2.5899125     -9192.4205      1298.2075      2.2796251    
ec    47500  47.5           0.001          300.13212     -275.30283      2.4440927     -9359.7656      1298.2075     -0.28316705   
ec    47600  47.6           0.001          281.73127     -275.50968      2.2942473     -9571.0458      1298.2075     -4.8405137    
ec    47700  47.7           0.001          310.16009     -275.50793      2.5257543     -9342.2055      1298.2075      6.3476182    
ec    47800  47.8           0.001          322.70321     -275.11051      2.6278978     -9142.1705      1298.2075     -1.041215     
ec    47900  47.9           0.001          330.13826     -275.06591      2.6884443     -8975.7611      1298.2075     -2.2664372    
ec    48000  48             0.001          302.12869     -274.94623      2.4603515     -9209.9344      1298.2075      0.57211896   
ec    48100  48.1           0.001          277.2857      -275.02478      2.2580454     -9719.1575      1298.2075     -0.39426834   
ec    48200  48.2           0.001          205.75706     -274.96893      1.6755598     -10225.779      1298.2075      0.57752245   
ec    48300  48.3           0.001          239.32959     -275.30479      1.948954      -10192.852      1298.2075     -0.41669428   
ec    48400  48.4           0.001          261.63605     -274.83472      2.1306042     -9728.379       1298.2075      0.72262829   
ec    48500  48.5           0.001          291.88069     -274.89399      2.3768981     -9464.4192      1298.2075     -0.58585808   
ec    48600  48.6           0.001          340.81633     -275.23666      2.7754        -9474.3125      1298.2075      0.063596723  
ec    48700  48.7           0.001          293.74104     -274.91785      2.3920476     -9438.5443      1298.2075     -1.6180793    
ec    48800  48.8           0.001          304.34218     -275.20634      2.4783768     -9397.8982      1298.2075      0.86733177   
ec    48900  48.9           0.001          275.30315     -275.25323      2.2419007     -9539.0495      1298.2075      4.1768274    
ec    49000  49             0.001          293.37713     -275.44878      2.3890842     -9407.9161      1298.2075     -8.2092996    
ec    49100  49.1           0.001          302.54953     -274.97633      2.4637785     -8955.7267      1298.2075      6.0168279    
ec    49200  49.2           0.001          355.96367     -275.07067      2.8987507     -8716.1094      1298.2075      0.12644567   
ec    49300  49.3           0.001          366.5171      -275.28511      2.9846913     -9007.6439      1298.2075     -2.8558112    
ec    49400  49.4           0.001          256.14744     -274.80919      2.0859083     -9370.0562      1298.2075      1.5512453    
ec    49500  49.5           0.001          276.67541     -275.28481      2.2530756     -9973.9294      1298.2075      1.257649     
ec    49600  49.6           0.001          262.08775     -275.02678      2.1342825     -9988.5397      1298.2075     -1.0772933    
ec    49700  49.7           0.001          299.70912     -274.54086      2.440648      -9228.7067      1298.2075     -2.5845352    
ec    49800  49.8           0.001          326.73794     -274.71003      2.6607542     -9442.7101      1298.2075      6.5490482    
ec    49900  49.9           0.001          265.75863     -274.70488      2.1641759     -9467.7774      1298.2075     -6.0564436    
ec    50000  50             0.001          271.47521     -275.07279      2.2107283     -9625.9116      1298.2075      1.5177911    
ec    50100  50.1           0.001          272.01333     -275.0645       2.2151104     -9494.7815      1298.2075     -0.62426253   
ec    50200  50.2           0.001          319.31582     -274.9802       2.600313      -9284.3401      1298.2075      0.90372409   
ec    50300  50.3           0.001          387.05304     -275.01468      3.1519235     -8773.6544      1298.2075     -1.2352008    
ec    50400  50.4           0.001          336.03948     -274.81935      2.7365002     -8631.346       1298.2075     -0.3823305    
ec    50500  50.5           0.001          347.98589     -275.26222      2.8337846     -8972.0984      1298.2075      1.8413264    
ec    50600  50.6           0.001          319.61007     -275.26916      2.6027092     -9056.8986      1298.2075     -0.33422132   
ec    50700  50.7           0.001          270.11856     -274.95124      2.1996805     -9152.3801      1298.2075     -1.248806     
ec    50800  50.8           0.001          310.00327     -275.11159      2.5244772     -9285.1456      1298.2075      0.51790346   
ec    50900  50.9           0.001          302.94981     -274.42079      2.4670382     -9112.8273      1298.2075      1.911579     
ec    51000  51             0.001          329.37514     -274.62998      2.68223       -9143.9967      1298.2075     -2.352625     
ec    51100  51.1           0.001          262.42211     -274.67057      2.1370054     -9764.3229      1298.2075      1.2560746    
ec    51200  51.2           0.001          277.29964     -274.99667      2.2581589     -9765.4047      1298.2075     -0.51221942   
ec    51300  51.3           0.001          293.14972     -275.08803      2.3872322     -9557.6798      1298.2075      0.23001796   
ec    51400  51.4           0.001          286.33328     -274.83169      2.3317233     -9383.2049      1298.2075     -3.9215193    
ec    51500  51.5           0.001          397.48152     -275.15128      3.2368467     -8963.382       1298.2075      5.7622498    
ec    51600  51.6           0.001          338.34347     -274.43581      2.7552625     -8361.1907      1298.2075     -2.5083028    
ec    51700  51.7           0.001          315.15334     -274.96337      2.5664163     -8880.607       1298.2075     -0.5263272    
ec    51800  51.8           0.001          298.93372     -275.07921      2.4343336     -9124.4413      1298.2075      1.6132229    
ec    51900  51.9           0.001          285.17376     -274.9912       2.3222809     -8770.5849      1298.2075      0.55572081   
ec    52000  52             0.001          340.17619     -275.34756      2.7701871     -9165.0887      1298.2075     -1.6505873    
ec    52100  52.1           0.001          349.24107     -275.18478      2.8440059     -8940.0903      1298.2075      0.26369433   
ec    52200  52.2           0.001          350.18383     -274.9043       2.8516832     -8843.4301      1298.2075      4.4932909    
ec    52300  52.3           0.001          313.2073      -274.70497      2.5505689     -9276.4492      1298.2075     -6.0258789    
ec    52400  52.4           0.001          251.42185     -274.86306      2.0474259     -9997.2374      1298.2075      2.3895478    
ec    52500  52.5           0.001          254.20234     -275.02423      2.0700686     -9938.7025      1298.2075     -2.4580742    
ec    52600  52.6           0.001          240.82907     -274.68483      1.9611648     -9549.1382      1298.2075      1.4308725    
ec    52700  52.7           0.001          311.58461     -274.80707      2.5373547     -9377.9078      1298.2075      0.37157129   
ec    52800  52.8           0.001          357.70574     -275.01771      2.912937      -8958.9993      1298.2075     -2.6773367    
ec    52900  52.9           0.001          289.14089     -274.98156      2.3545868     -9455.7882      1298.2075      4.1562987    
ec    53000  53             0.001          257.00077     -275.29088      2.0928573     -9674.3514      1298.2075     -1.0026822    
ec    53100  53.1           0.001          301.183       -275.38277      2.4526504     -9370.326       1298.2075     -0.8368034    
ec    53200  53.2           0.001          335.66277     -275.1694       2.7334326     -8857.408       1298.2075      1.9600002    
ec    53300  53.3           0.001          337.85635     -274.97083      2.7512957     -8674.2779      1298.2075      1.8742657    
ec    53400  53.4           0.001          355.61409     -275.2537       2.8959039     -8809.2045      1298.2075     -4.9026526    
ec    53500  53.5           0.001          280.90717     -275.21753      2.2875364     -9208.738       1298.2075      1.1848879    
ec    53600  53.6           0.001          256.62989     -275.2044       2.0898371     -9488.3008      1298.2075      2.3489991    
ec    53700  53.7           0.001          246.54168     -274.91741      2.0076849     -9550.6477      1298.2075     -5.578172     
ec    53800  53.8           0.001          276.7007      -274.95594      2.2532815     -9598.6737      1298.2075      2.414673     
ec    53900  53.9           0.001          301.66152     -274.98861      2.4565472     -9603.3406      1298.2075      0.014302671  
ec    54000  54             0.001          317.33843     -274.99902      2.5842103     -9354.781       1298.2075     -0.71589515   
ec    54100  54.1           0.001          306.57709     -274.8687       2.4965765     -9244.3837      1298.2075      0.6867855    
ec    54200  54.2           0.001          278.05687     -274.83243      2.2643253     -9420.0254      1298.2075      2.1381201    
ec    54300  54.3           0.001          297.4974      -275.28603      2.4226371     -9405.6893      1298.2075      2.2254461    
ec    54400  54.4           0.001          250.40807     -274.9994       2.0391704     -9312.5374      1298.2075     -4.423873     
ec    54500  54.5           0.001          282.58122     -274.91433      2.3011688     -8935.084       1298.2075      2.1779911    
ec    54600  54.6           0.001          358.61536     -275.01264      2.9203444     -8605.8413      1298.2075      1.6546774    
ec    54700  54.7           0.001          358.49443     -275.07807      2.9193596     -8517.5952      1298.2075     -1.4233024    
ec    54800  54.8           0.001          319.31303     -275.06857      2.6002902     -8910.2665      1298.2075     -2.3108536    
ec    54900  54.9           0.001          320.09359     -275.22172      2.6066467     -8975.6372      1298.2075      1.2810233    
ec    55000  55             0.001          322.29692     -275.25783      2.6245892     -9120.4894      1298.2075     -1.4133282    
ec    55100  55.1           0.001          317.06042     -275.17391      2.5819464     -9467.6762      1298.2075     -0.42467857   
ec    55200  55.2           0.001          272.58301     -274.66823      2.2197495     -9374.5727      1298.2075      0.6487073    
ec    55300  55.3           0.001          293.09165     -274.35605      2.3867594     -8946.6413      1298.2075      1.2895588    
ec    55400  55.4           0.001          305.61095     -274.39741      2.4887089     -8988.5535      1298.2075      1.3841548    
ec    55500  55.5           0.001          265.25251     -274.7019       2.1600544     -9381.6994      1298.2075     -2.2076876    
ec    55600  55.6           0.001          280.43138     -275.06439      2.2836619     -9482.2387      1298.2075      3.0463434    
ec    55700  55.7           0.001          261.74403     -274.86901      2.1314835     -9284.6101      1298.2075      0.97539158   
ec    55800  55.8           0.001          345.90738     -275.26059      2.8168584     -8989.1493      1298.2075     -2.6379244    
ec    55900  55.9           0.001          361.25599     -274.77862      2.9418481     -8546.96        1298.2075      0.45270164   
ec    56000  56             0.001          363.55504     -274.7596       2.9605701     -8358.5216      1298.2075      3.0286193    
ec    56100  56.1           0.001          353.98177     -275.49977      2.8826113     -8909.5836      1298.2075     -5.550048     
ec    56200  56.2           0.001          308.70967     -275.24474      2.5139429     -8945.5246      1298.2075      1.1469632    
ec    56300  56.3           0.001          316.17532     -275.21521      2.5747387     -9048.1696      1298.2075      0.85042737   
ec    56400  56.4           0.001          291.05079     -274.77561      2.3701398     -8749.7347      1298.2075     -0.22575225   
ec    56500  56.5           0.001          294.28278     -274.55377      2.3964592     -9006.1338      1298.2075     -0.337092     
ec    56600  56.6           0.001          292.58854     -274.58224      2.3826623     -9486.7505      1298.2075      0.53919321   
ec    56700  56.7           0.001          267.18384     -274.98669      2.175782      -9673.5147      1298.2075      4.0010306    
ec    56800  56.8           0.001          271.15551     -275.21673      2.2081249     -9788.1662      1298.2075     -4.0151047    
ec    56900  56.9           0.001          269.9189      -274.98538      2.1980546     -9649.5768      1298.2075      1.6763581    
ec    57000  57             0.001          328.1898      -274.95751      2.6725772     -9175.3027      1298.2075      1.8516507    
ec    57100  57.1           0.001          326.40417     -274.85173      2.6580362     -8768.8278      1298.2075     -0.8482042    
ec    57200  57.2           0.001          278.52491     -274.62591      2.2681368     -8873.3328      1298.2075     -4.1882827    
ec    57300  57.3           0.001          307.81096     -275.08797      2.5066244     -9062.9902      1298.2075      2.0798273    
ec    57400  57.4           0.001          319.25707     -275.39004      2.5998346     -9207.8379      1298.2075      0.47819795   
ec    57500  57.5           0.001          287.56092     -275.31574      2.3417205     -9362.9894      1298.2075     -2.4350226    
ec    57600  57.6           0.001          283.42591     -275.37442      2.3080475     -9328.1352      1298.2075      2.7688529    
ec    57700  57.7           0.001          326.54262     -275.36523      2.6591636     -9055.6988      1298.2075     -1.0859924    
ec    57800  57.8           0.001          315.90493     -274.8426       2.5725368     -8926.6246      1298.2075      0.37361555   
ec    57900  57.9           0.001          319.29068     -274.8269       2.6001082     -8995.1036      1298.2075     -0.4122513    
ec    58000  58             0.001          301.06023     -275.06898      2.4516506     -9491.1469      1298.2075      2.8143957    
ec    58100  58.1           0.001          223.00558     -274.94576      1.8160212     -9803.9707      1298.2075      0.8853733    
ec    58200  58.2           0.001          252.82778     -275.12566      2.058875      -9764.3288      1298.2075     -3.7712215    
ec    58300  58.3           0.001          253.09132     -274.86481      2.0610211     -9510.4461      1298.2075      1.0038905    
ec    58400  58.4           0.001          262.04407     -274.63813      2.1339269     -9321.6685      1298.2075      0.88780311   
ec    58500  58.5           0.001          319.14138     -274.91658      2.5988924     -9125.5937      1298.2075     -1.3137533    
ec    58600  58.6           0.001          343.04517     -275.18782      2.7935503     -8903.2463      1298.2075     -1.4409459    
ec    58700  58.7           0.001          303.44355     -275.49457      2.4710589     -9591.1365      1298.2075      2.0039357    
ec    58800  58.8           0.001          269.1004      -275.34689      2.1913893     -9428.271       1298.2075     -1.1891798    
ec    58900  58.9           0.001          326.09347     -275.41276      2.655506      -9064.5321      1298.2075     -0.79480367   
ec    59000  59             0.001          336.96459     -275.13386      2.7440337     -8698.3473      1298.2075      3.7075128    
ec    59100  59.1           0.001          286.48154     -274.70799      2.3329306     -8587.7594      1298.2075      1.3521607    
ec    59200  59.2           0.001          322.90848     -275.15035      2.6295694     -8927.4842      1298.2075     -1.5991513    
ec    59300  59.3           0.001          261.29549     -274.98171      2.1278308     -9496.8603      1298.2075     -1.2191946    
ec    59400  59.4           0.001          237.16825     -275.36994      1.9313534     -10083.884      1298.2075      1.9091854    
ec    59500  59.5           0.001          252.05738     -275.40108      2.0526013     -9877.4059      1298.2075     -1.0254444    
ec    59600  59.6           0.001          246.83751     -274.94984      2.0100939     -9716.3722      1298.2075     -0.29996847   
ec    59700  59.7           0.001          309.31144     -275.19578      2.5188434     -9595.8807      1298.2075     -1.9549242    
ec    59800  59.8           0.001          318.53325     -275.00757      2.5939402     -9226.1387      1298.2075      1.0146509    
ec    59900  59.9           0.001          318.05875     -274.83781      2.5900762     -8858.1238      1298.2075     -0.9932924    
Fix halt condition for fix-id myhalt met on step 60000 with value 60 (../fix_halt.cpp:240)
ec    60000  60             0.001          299.75406     -274.84121      2.441014      -9036.3317      1298.2075      1.1443173    
Loop time of 0.711338 on 6 procs for 30000 steps with 64 atoms

Performance: 3643.837 ns/day, 0.007 hours/ns, 42174.041 timesteps/s, 2.699 Matom-step/s
100.0% CPU use with 6 MPI tasks x no OpenMP threads

MPI task timing breakdown:
Section |  min time  |  avg time  |  max time  |%varavg| %total
---------------------------------------------------------------
Pair    | 0.1831     | 0.2483     | 0.27874    |   7.5 | 34.91
Neigh   | 0          | 0          | 0          |   0.0 |  0.00
Comm    | 0.3476     | 0.37879    | 0.44358    |   6.1 | 53.25
Output  | 0.0031047  | 0.0035506  | 0.0055456  |   1.5 |  0.50
Modify  | 0.041239   | 0.043973   | 0.045962   |   0.7 |  6.18
Other   |            | 0.03672    |            |       |  5.16

Nlocal:        10.6667 ave          12 max           8 min
Histogram: 1 0 1 0 0 0 0 1 0 3
Nghost:            296 ave         301 max         290 min
Histogram: 2 0 0 0 0 0 1 1 0 2
Neighs:              0 ave           0 max           0 min
Histogram: 6 0 0 0 0 0 0 0 0 0
FullNghs:          366 ave         412 max         276 min
Histogram: 1 0 1 0 0 0 0 1 0 3

Total # of neighbors = 2196
Ave neighs/atom = 34.3125
Neighbor list builds = 0
Dangerous builds = 0

write_data cell.data_${temp}
write_data cell.data_300
System init for write_data ...
Total wall time: 0:00:01
