

units metal
timestep 0.001
boundary p p p

lattice         diamond 5.43
Lattice spacing in x,y,z = 5.43 5.43 5.43
region          box block 0 ${N} 0 ${N} 0 ${N}
region          box block 0 4 0 ${N} 0 ${N}
region          box block 0 4 0 4 0 ${N}
region          box block 0 4 0 4 0 4
create_box      1 box
Created orthogonal box = (0 0 0) to (21.72 21.72 21.72)
  1 by 2 by 2 MPI processor grid
create_atoms    1 box
Created 512 atoms
  using lattice units in orthogonal box = (0 0 0) to (21.72 21.72 21.72)
  create_atoms CPU = 0.000 seconds

timestep ${dt}
timestep 1e-3

mass 1 28.0855
labelmap atom 1 Si

pair_style sw
pair_coeff * * Si.sw Si
Reading sw potential file Si.sw with DATE: 2007-06-11

thermo 100
thermo_style	custom step time dt temp pe ke press vol
thermo_modify	line one flush yes format 1 "ec %8lu" flush yes


velocity all create ${temp} 4928459 mom yes rot yes dist gaussian
velocity all create 400 4928459 mom yes rot yes dist gaussian

variable t equal time
fix myhalt all halt 100 v_t >= 30.0 error continue

fix NVE all nve

run 10000000

CITE-CITE-CITE-CITE-CITE-CITE-CITE-CITE-CITE-CITE-CITE-CITE-CITE

Your simulation uses code contributions which should be cited:

- Type Label Framework: https://doi.org/10.1021/acs.jpcb.3c08419

@Article{Gissinger24,
 author = {Jacob R. Gissinger, Ilia Nikiforov, Yaser Afshar, Brendon Waters, Moon-ki Choi, Daniel S. Karls, Alexander Stukowski, Wonpil Im, Hendrik Heinz, Axel Kohlmeyer, and Ellad B. Tadmor},
 title = {Type Label Framework for Bonded Force Fields in LAMMPS},
 journal = {J. Phys. Chem. B},
 year =    2024,
 volume =  128,
 number =  13,
 pages =   {3282--3297}
}

CITE-CITE-CITE-CITE-CITE-CITE-CITE-CITE-CITE-CITE-CITE-CITE-CITE

Neighbor list info ...
  update: every = 1 steps, delay = 0 steps, check = yes
  max neighbors/atom: 2000, page size: 100000
  master list distance cutoff = 5.77118
  ghost atom cutoff = 5.77118
  binsize = 2.88559, bins = 8 8 8
  1 neighbor lists, perpetual/occasional/extra = 1 0 0
  (1) pair sw, perpetual
      attributes: full, newton on
      pair build: full/bin/atomonly
      stencil: full/bin/3d
      bin: standard
Per MPI rank memory allocation (min/avg/max) = 3.215 | 3.215 | 3.215 Mbytes
   Step          Time            Dt            Temp          PotEng         KinEng         Press          Volume    
ec        0  0              0.001          400           -2220.3383      26.420774      3286.7027      10246.592    
ec      100  0.1            0.001          193.7195      -2206.6896      12.795548      3163.6988      10246.592    
ec      200  0.2            0.001          174.35049     -2205.408       11.516187      3163.498       10246.592    
ec      300  0.3            0.001          194.03941     -2206.7138      12.816678      2917.9004      10246.592    
ec      400  0.4            0.001          179.34711     -2205.743       11.846223      2704.5884      10246.592    
ec      500  0.5            0.001          190.8592      -2206.5034      12.606619      2803.764       10246.592    
ec      600  0.6            0.001          198.97382     -2207.0401      13.142606      2963.6203      10246.592    
ec      700  0.7            0.001          166.52385     -2204.8927      10.999223      2856.7997      10246.592    
ec      800  0.8            0.001          211.84291     -2207.8923      13.992634      2880.0055      10246.592    
ec      900  0.9            0.001          202.93869     -2207.3005      13.404493      3103.8856      10246.592    
ec     1000  1              0.001          169.79693     -2205.1089      11.215416      3090.4403      10246.592    
ec     1100  1.1            0.001          212.97171     -2207.9657      14.067193      3009.5737      10246.592    
ec     1200  1.2            0.001          203.85035     -2207.363       13.46471       2839.7181      10246.592    
ec     1300  1.3            0.001          197.3784      -2206.9339      13.037225      2960.1894      10246.592    
ec     1400  1.4            0.001          212.73371     -2207.9495      14.051473      2892.296       10246.592    
ec     1500  1.5            0.001          200.27134     -2207.1254      13.22831       2992.8251      10246.592    
ec     1600  1.6            0.001          209.27203     -2207.7203      13.822822      3044.9444      10246.592    
ec     1700  1.7            0.001          209.92251     -2207.7643      13.865788      2926.4016      10246.592    
ec     1800  1.8            0.001          220.11642     -2208.4385      14.539115      2996.9705      10246.592    
ec     1900  1.9            0.001          193.59607     -2206.6816      12.787395      3110.0448      10246.592    
ec     2000  2              0.001          199.59123     -2207.08        13.183387      3047.3237      10246.592    
ec     2100  2.1            0.001          174.9722      -2205.4521      11.557252      2856.7556      10246.592    
ec     2200  2.2            0.001          198.61269     -2207.0163      13.118752      2923.8611      10246.592    
ec     2300  2.3            0.001          168.36145     -2205.0155      11.1206        2739.4587      10246.592    
ec     2400  2.4            0.001          167.16263     -2204.9368      11.041415      2768.2297      10246.592    
ec     2500  2.5            0.001          190.37365     -2206.4727      12.574548      2754.2226      10246.592    
ec     2600  2.6            0.001          211.96943     -2207.8997      14.000991      2948.7201      10246.592    
ec     2700  2.7            0.001          168.5557      -2205.0248      11.13343       3105.6924      10246.592    
ec     2800  2.8            0.001          218.05553     -2208.3017      14.402989      3073.5651      10246.592    
ec     2900  2.9            0.001          215.77124     -2208.1511      14.252108      3002.7218      10246.592    
ec     3000  3              0.001          221.67175     -2208.5389      14.641848      3085.2831      10246.592    
ec     3100  3.1            0.001          218.60037     -2208.3366      14.438977      3172.7791      10246.592    
ec     3200  3.2            0.001          216.08638     -2208.1706      14.272923      3050.0498      10246.592    
ec     3300  3.3            0.001          200.60823     -2207.1477      13.250561      2909.9314      10246.592    
ec     3400  3.4            0.001          179.3353      -2205.7417      11.845444      2739.3939      10246.592    
ec     3500  3.5            0.001          186.40498     -2206.207       12.312409      2807.8083      10246.592    
ec     3600  3.6            0.001          191.95624     -2206.5756      12.679081      2960.6656      10246.592    
ec     3700  3.7            0.001          193.26311     -2206.6623      12.765402      2830.1917      10246.592    
ec     3800  3.8            0.001          205.82751     -2207.4911      13.595305      3145.9146      10246.592    
ec     3900  3.9            0.001          196.33736     -2206.8645      12.968462      3003.8676      10246.592    
ec     4000  4              0.001          193.98441     -2206.7101      12.813045      2920.3878      10246.592    
ec     4100  4.1            0.001          228.57091     -2208.9962      15.097551      3184.7135      10246.592    
ec     4200  4.2            0.001          194.54493     -2206.7461      12.850069      2972.3958      10246.592    
ec     4300  4.3            0.001          185.71915     -2206.1644      12.267109      2758.7681      10246.592    
ec     4400  4.4            0.001          210.47006     -2207.7989      13.901955      2974.1161      10246.592    
ec     4500  4.5            0.001          175.19548     -2205.4665      11.572         2946.9812      10246.592    
ec     4600  4.6            0.001          224.29292     -2208.7145      14.814981      2977.5443      10246.592    
ec     4700  4.7            0.001          211.88365     -2207.8927      13.995325      3109.9565      10246.592    
ec     4800  4.8            0.001          193.3914      -2206.6698      12.773876      2964.3993      10246.592    
ec     4900  4.9            0.001          223.80846     -2208.6817      14.782982      2959.539       10246.592    
ec     5000  5              0.001          202.70508     -2207.2858      13.389062      3027.4784      10246.592    
ec     5100  5.1            0.001          196.2161      -2206.8576      12.960453      2855.1289      10246.592    
ec     5200  5.2            0.001          180.11194     -2205.7928      11.896742      2763.9314      10246.592    
ec     5300  5.3            0.001          164.97506     -2204.7901      10.896922      2728.7081      10246.592    
ec     5400  5.4            0.001          183.23798     -2206.0001      12.103223      2798.2424      10246.592    
ec     5500  5.5            0.001          210.75946     -2207.8195      13.92107       2911.0699      10246.592    
ec     5600  5.6            0.001          191.95078     -2206.5743      12.67872       3045.888       10246.592    
ec     5700  5.7            0.001          232.58591     -2209.2629      15.36275       3054.0015      10246.592    
ec     5800  5.8            0.001          214.19993     -2208.0457      14.14832       3124.4556      10246.592    
ec     5900  5.9            0.001          181.20383     -2205.8642      11.968863      3045.6288      10246.592    
ec     6000  6              0.001          201.51784     -2207.2071      13.310643      3045.9056      10246.592    
ec     6100  6.1            0.001          189.4578      -2206.4112      12.514054      2870.0902      10246.592    
ec     6200  6.2            0.001          189.59244     -2206.4199      12.522947      2811.6203      10246.592    
ec     6300  6.3            0.001          202.46555     -2207.2716      13.373241      2780.3873      10246.592    
ec     6400  6.4            0.001          208.15296     -2207.6469      13.748906      2899.1737      10246.592    
ec     6500  6.5            0.001          193.16098     -2206.6553      12.758656      2874.1138      10246.592    
ec     6600  6.6            0.001          189.76053     -2206.4301      12.53405       2920.0308      10246.592    
ec     6700  6.7            0.001          194.08168     -2206.7159      12.81947       2923.133       10246.592    
ec     6800  6.8            0.001          199.59675     -2207.0813      13.183752      2914.1183      10246.592    
ec     6900  6.9            0.001          209.79334     -2207.7543      13.857256      3132.7293      10246.592    
ec     7000  7              0.001          198.24665     -2206.9906      13.094575      3158.687       10246.592    
ec     7100  7.1            0.001          206.26045     -2207.5204      13.623901      3121.5682      10246.592    
ec     7200  7.2            0.001          214.99581     -2208.0991      14.200889      3035.6506      10246.592    
ec     7300  7.3            0.001          204.68902     -2207.4182      13.520106      3002.9088      10246.592    
ec     7400  7.4            0.001          200.38054     -2207.1323      13.235522      2997.1586      10246.592    
ec     7500  7.5            0.001          197.78887     -2206.9619      13.064338      2946.9017      10246.592    
ec     7600  7.6            0.001          202.96678     -2207.3036      13.406349      2931.0631      10246.592    
ec     7700  7.7            0.001          217.6797      -2208.2761      14.378165      3164.233       10246.592    
ec     7800  7.8            0.001          170.02146     -2205.125       11.230246      2888.6912      10246.592    
ec     7900  7.9            0.001          213.39725     -2207.9933      14.095301      3061.3221      10246.592    
ec     8000  8              0.001          198.79565     -2207.0283      13.130837      2953.8192      10246.592    
ec     8100  8.1            0.001          209.41454     -2207.7316      13.832235      2747.038       10246.592    
ec     8200  8.2            0.001          195.03536     -2206.7787      12.882463      3004.8035      10246.592    
ec     8300  8.3            0.001          198.42512     -2207.0028      13.106363      2950.3684      10246.592    
ec     8400  8.4            0.001          168.41794     -2205.0182      11.124331      2842.2866      10246.592    
ec     8500  8.5            0.001          206.02098     -2207.5049      13.608084      3108.6476      10246.592    
ec     8600  8.6            0.001          225.05359     -2208.7641      14.865225      3111.2413      10246.592    
ec     8700  8.7            0.001          207.50256     -2207.6029      13.705946      3144.7908      10246.592    
ec     8800  8.8            0.001          224.763       -2208.7439      14.846031      3267.6026      10246.592    
ec     8900  8.9            0.001          199.48457     -2207.0741      13.176342      3011.9296      10246.592    
ec     9000  9              0.001          193.07585     -2206.6482      12.753033      3049.5083      10246.592    
ec     9100  9.1            0.001          194.32362     -2206.7328      12.835451      2955.349       10246.592    
ec     9200  9.2            0.001          204.4376      -2207.4029      13.503499      2784.3557      10246.592    
ec     9300  9.3            0.001          183.62611     -2206.0257      12.12886       2729.7949      10246.592    
ec     9400  9.4            0.001          167.46292     -2204.9556      11.06125       2765.9912      10246.592    
ec     9500  9.5            0.001          200.06423     -2207.1125      13.214629      2806.4262      10246.592    
ec     9600  9.6            0.001          195.23972     -2206.7935      12.895961      3009.0125      10246.592    
ec     9700  9.7            0.001          199.37503     -2207.0659      13.169106      3008.1898      10246.592    
ec     9800  9.8            0.001          188.22028     -2206.3281      12.432314      2934.6913      10246.592    
ec     9900  9.9            0.001          209.0019      -2207.7029      13.80498       2976.2599      10246.592    
ec    10000  10             0.001          182.6258      -2205.9583      12.062788      2908.1136      10246.592    
ec    10100  10.1           0.001          219.19009     -2208.3763      14.477929      3154.362       10246.592    
ec    10200  10.2           0.001          190.30804     -2206.4641      12.570214      3153.7181      10246.592    
ec    10300  10.3           0.001          221.20093     -2208.5099      14.610749      3037.0811      10246.592    
ec    10400  10.4           0.001          207.30759     -2207.5914      13.693068      2859.8844      10246.592    
ec    10500  10.5           0.001          198.68731     -2207.0203      13.123681      3121.155       10246.592    
ec    10600  10.6           0.001          205.28548     -2207.4568      13.559503      2904.0613      10246.592    
ec    10700  10.7           0.001          201.24053     -2207.1901      13.292326      3002.455       10246.592    
ec    10800  10.8           0.001          189.22234     -2206.3942      12.498502      2989.8621      10246.592    
ec    10900  10.9           0.001          191.75097     -2206.5628      12.665522      2822.4818      10246.592    
ec    11000  11             0.001          184.77061     -2206.1008      12.204456      2884.8303      10246.592    
ec    11100  11.1           0.001          198.70057     -2207.0219      13.124557      2931.7131      10246.592    
ec    11200  11.2           0.001          195.62933     -2206.8178      12.921696      2917.941       10246.592    
ec    11300  11.3           0.001          201.66734     -2207.218       13.320518      2965.3845      10246.592    
ec    11400  11.4           0.001          202.90278     -2207.3001      13.402121      2957.0218      10246.592    
ec    11500  11.5           0.001          196.59248     -2206.8804      12.985313      3143.5989      10246.592    
ec    11600  11.6           0.001          189.53435     -2206.4137      12.51911       3084.8639      10246.592    
ec    11700  11.7           0.001          219.0519      -2208.3679      14.468802      2981.4532      10246.592    
ec    11800  11.8           0.001          223.38357     -2208.6525      14.754917      3134.2186      10246.592    
ec    11900  11.9           0.001          196.48401     -2206.8749      12.978149      3056.0638      10246.592    
ec    12000  12             0.001          216.99402     -2208.231       14.332874      2986.254       10246.592    
ec    12100  12.1           0.001          220.04521     -2208.4324      14.534411      3074.8489      10246.592    
ec    12200  12.2           0.001          183.36026     -2206.0076      12.1113        2828.2692      10246.592    
ec    12300  12.3           0.001          190.8771      -2206.5038      12.607802      2923.8685      10246.592    
ec    12400  12.4           0.001          189.43332     -2206.4093      12.512437      2878.9963      10246.592    
ec    12500  12.5           0.001          195.96181     -2206.8427      12.943657      2650.2107      10246.592    
ec    12600  12.6           0.001          171.93918     -2205.2506      11.356915      2928.9491      10246.592    
ec    12700  12.7           0.001          200.13787     -2207.1161      13.219493      3084.1418      10246.592    
ec    12800  12.8           0.001          203.00538     -2207.3068      13.408898      3014.796       10246.592    
ec    12900  12.9           0.001          215.9433      -2208.161       14.263473      3110.0234      10246.592    
ec    13000  13             0.001          197.62006     -2206.9499      13.053187      2979.0146      10246.592    
ec    13100  13.1           0.001          188.65115     -2206.3575      12.460773      2881.0985      10246.592    
ec    13200  13.2           0.001          200.20397     -2207.1205      13.223859      2949.5484      10246.592    
ec    13300  13.3           0.001          195.47134     -2206.8077      12.91126       3039.7477      10246.592    
ec    13400  13.4           0.001          209.02702     -2207.7036      13.806639      2962.6572      10246.592    
ec    13500  13.5           0.001          201.99999     -2207.2401      13.34249       2954.9977      10246.592    
ec    13600  13.6           0.001          205.64879     -2207.4822      13.583501      2804.7123      10246.592    
ec    13700  13.7           0.001          196.12989     -2206.851       12.954758      3041.1022      10246.592    
ec    13800  13.8           0.001          193.75284     -2206.6943      12.79775       2852.6678      10246.592    
ec    13900  13.9           0.001          204.04135     -2207.3749      13.477326      2893.3028      10246.592    
ec    14000  14             0.001          182.41119     -2205.9446      12.048612      2841.8053      10246.592    
ec    14100  14.1           0.001          193.02527     -2206.6457      12.749692      2935.2459      10246.592    
ec    14200  14.2           0.001          184.62024     -2206.0911      12.194524      2929.1273      10246.592    
ec    14300  14.3           0.001          214.93485     -2208.095       14.196863      3016.7818      10246.592    
ec    14400  14.4           0.001          198.79103     -2207.0273      13.130532      2971.4657      10246.592    
ec    14500  14.5           0.001          197.61167     -2206.9495      13.052633      2969.8125      10246.592    
ec    14600  14.6           0.001          205.60607     -2207.4771      13.580679      3074.4025      10246.592    
ec    14700  14.7           0.001          212.80824     -2207.9542      14.056396      3050.979       10246.592    
ec    14800  14.8           0.001          201.94054     -2207.2352      13.338563      2984.7908      10246.592    
ec    14900  14.9           0.001          197.99875     -2206.9754      13.0782        2977.6975      10246.592    
ec    15000  15             0.001          212.03719     -2207.904       14.005466      2892.6814      10246.592    
ec    15100  15.1           0.001          189.84511     -2206.4349      12.539637      3026.301       10246.592    
ec    15200  15.2           0.001          212.52876     -2207.9351      14.037936      3016.7338      10246.592    
ec    15300  15.3           0.001          213.3298      -2207.9902      14.090846      2816.3792      10246.592    
ec    15400  15.4           0.001          186.23876     -2206.1977      12.30143       2846.8246      10246.592    
ec    15500  15.5           0.001          186.50259     -2206.2145      12.318857      2868.3033      10246.592    
ec    15600  15.6           0.001          200.8325      -2207.1629      13.265375      2972.0262      10246.592    
ec    15700  15.7           0.001          194.74141     -2206.7584      12.863047      3054.0897      10246.592    
ec    15800  15.8           0.001          207.08347     -2207.5757      13.678264      2998.6867      10246.592    
ec    15900  15.9           0.001          218.01754     -2208.2976      14.40048       3199.0322      10246.592    
ec    16000  16             0.001          213.04183     -2207.9698      14.071825      3075.1949      10246.592    
ec    16100  16.1           0.001          214.91462     -2208.0942      14.195526      2988.0028      10246.592    
ec    16200  16.2           0.001          187.85585     -2206.3032      12.408242      2978.9518      10246.592    
ec    16300  16.3           0.001          172.48967     -2205.2876      11.393277      2892.914       10246.592    
ec    16400  16.4           0.001          193.34894     -2206.6691      12.771071      2704.5192      10246.592    
ec    16500  16.5           0.001          208.63076     -2207.6785      13.780466      2938.8079      10246.592    
ec    16600  16.6           0.001          194.20926     -2206.724       12.827898      2892.5177      10246.592    
ec    16700  16.7           0.001          201.40591     -2207.2         13.30325       2934.9673      10246.592    
ec    16800  16.8           0.001          202.67551     -2207.285       13.387109      2923.435       10246.592    
ec    16900  16.9           0.001          208.96946     -2207.7015      13.802837      2806.8378      10246.592    
ec    17000  17             0.001          184.49895     -2206.0817      12.186512      2919.8713      10246.592    
ec    17100  17.1           0.001          192.25358     -2206.595       12.698721      2939.2411      10246.592    
ec    17200  17.2           0.001          187.58425     -2206.2862      12.390303      2977.5245      10246.592    
ec    17300  17.3           0.001          208.11657     -2207.644       13.746502      3007.4833      10246.592    
ec    17400  17.4           0.001          203.90048     -2207.3653      13.468021      2990.249       10246.592    
ec    17500  17.5           0.001          204.06122     -2207.3755      13.478639      3083.7281      10246.592    
ec    17600  17.6           0.001          203.17304     -2207.3171      13.419972      2993.5314      10246.592    
ec    17700  17.7           0.001          192.32196     -2206.5994      12.703237      3009.2134      10246.592    
ec    17800  17.8           0.001          217.68667     -2208.2764      14.378625      3035.0424      10246.592    
ec    17900  17.9           0.001          189.61722     -2206.4208      12.524584      2973.4723      10246.592    
ec    18000  18             0.001          189.32182     -2206.4009      12.505073      2896.3496      10246.592    
ec    18100  18.1           0.001          180.87557     -2205.8435      11.947181      2727.8637      10246.592    
ec    18200  18.2           0.001          199.5496      -2207.079       13.180637      2748.4789      10246.592    
ec    18300  18.3           0.001          186.07371     -2206.186       12.290529      2872.9727      10246.592    
ec    18400  18.4           0.001          200.04343     -2207.11        13.213256      2983.6953      10246.592    
ec    18500  18.5           0.001          210.86717     -2207.8255      13.928184      2982.0893      10246.592    
ec    18600  18.6           0.001          204.69732     -2207.4189      13.520654      2898.9961      10246.592    
ec    18700  18.7           0.001          207.45145     -2207.5991      13.702569      3029.5582      10246.592    
ec    18800  18.8           0.001          196.75835     -2206.8907      12.99627       3178.4765      10246.592    
ec    18900  18.9           0.001          211.8766      -2207.8925      13.994859      3055.1804      10246.592    
ec    19000  19             0.001          206.81651     -2207.5584      13.66063       2978.4279      10246.592    
ec    19100  19.1           0.001          199.28729     -2207.0596      13.163311      3083.0029      10246.592    
ec    19200  19.2           0.001          202.86627     -2207.2963      13.399709      3041.7258      10246.592    
ec    19300  19.3           0.001          209.62481     -2207.7439      13.846124      3023.3429      10246.592    
ec    19400  19.4           0.001          197.74309     -2206.9576      13.061314      3009.9697      10246.592    
ec    19500  19.5           0.001          190.5126      -2206.4806      12.583726      2880.9979      10246.592    
ec    19600  19.6           0.001          183.48991     -2206.0154      12.119864      2786.2938      10246.592    
ec    19700  19.7           0.001          198.08586     -2206.9811      13.083954      2888.6242      10246.592    
ec    19800  19.8           0.001          202.45238     -2207.2696      13.372372      2952.078       10246.592    
ec    19900  19.9           0.001          204.44585     -2207.4019      13.504044      2907.8605      10246.592    
ec    20000  20             0.001          204.07906     -2207.3773      13.479817      2983.795       10246.592    
ec    20100  20.1           0.001          199.5296      -2207.0761      13.179316      2882.7931      10246.592    
ec    20200  20.2           0.001          193.42908     -2206.6733      12.776365      2926.8268      10246.592    
ec    20300  20.3           0.001          198.31779     -2206.9952      13.099274      3043.3154      10246.592    
ec    20400  20.4           0.001          215.78582     -2208.1509      14.253071      3104.1512      10246.592    
ec    20500  20.5           0.001          194.45617     -2206.7406      12.844206      2984.0374      10246.592    
ec    20600  20.6           0.001          205.1812      -2207.449       13.552615      3126.2587      10246.592    
ec    20700  20.7           0.001          204.04677     -2207.3752      13.477684      2982.3988      10246.592    
ec    20800  20.8           0.001          202.66577     -2207.2838      13.386466      2946.7366      10246.592    
ec    20900  20.9           0.001          191.32401     -2206.5335      12.637321      2927.6841      10246.592    
ec    21000  21             0.001          204.35329     -2207.3962      13.49793       2851.9011      10246.592    
ec    21100  21.1           0.001          181.46971     -2205.8827      11.986426      2835.5727      10246.592    
ec    21200  21.2           0.001          181.76745     -2205.9023      12.006092      2769.4328      10246.592    
ec    21300  21.3           0.001          185.80296     -2206.1687      12.272645      2859.7598      10246.592    
ec    21400  21.4           0.001          188.88822     -2206.3722      12.476432      2960.4071      10246.592    
ec    21500  21.5           0.001          224.35703     -2208.7193      14.819216      2872.8468      10246.592    
ec    21600  21.6           0.001          210.21357     -2207.7829      13.885013      3052.499       10246.592    
ec    21700  21.7           0.001          199.00385     -2207.0411      13.144589      2984.1976      10246.592    
ec    21800  21.8           0.001          196.99306     -2206.9081      13.011773      3003.1852      10246.592    
ec    21900  21.9           0.001          197.42992     -2206.9365      13.040628      3017.6357      10246.592    
ec    22000  22             0.001          202.24907     -2207.2555      13.358942      3042.8066      10246.592    
ec    22100  22.1           0.001          196.02899     -2206.8452      12.948094      2973.6777      10246.592    
ec    22200  22.2           0.001          209.09119     -2207.7081      13.810877      3006.1555      10246.592    
ec    22300  22.3           0.001          203.4586      -2207.3364      13.438834      3015.5831      10246.592    
ec    22400  22.4           0.001          207.03045     -2207.5712      13.674761      3011.2336      10246.592    
ec    22500  22.5           0.001          194.54076     -2206.7468      12.849793      2976.3191      10246.592    
ec    22600  22.6           0.001          202.00877     -2207.2403      13.34307       2912.2899      10246.592    
ec    22700  22.7           0.001          187.95912     -2206.3117      12.415064      2808.3465      10246.592    
ec    22800  22.8           0.001          188.78253     -2206.3667      12.469451      2829.5524      10246.592    
ec    22900  22.9           0.001          201.84853     -2207.2289      13.332486      3029.9054      10246.592    
ec    23000  23             0.001          200.31993     -2207.1279      13.231519      3101.8367      10246.592    
ec    23100  23.1           0.001          214.13122     -2208.0421      14.143781      3013.6795      10246.592    
ec    23200  23.2           0.001          203.95107     -2207.3681      13.471363      3073.9703      10246.592    
ec    23300  23.3           0.001          209.92497     -2207.7637      13.86595       2973.3226      10246.592    
ec    23400  23.4           0.001          202.09506     -2207.2451      13.34877       3016.679       10246.592    
ec    23500  23.5           0.001          200.43911     -2207.1355      13.239391      3056.5902      10246.592    
ec    23600  23.6           0.001          204.90442     -2207.4312      13.534333      3035.4262      10246.592    
ec    23700  23.7           0.001          192.53044     -2206.6141      12.717008      2868.22        10246.592    
ec    23800  23.8           0.001          206.23941     -2207.5193      13.622512      2977.4083      10246.592    
ec    23900  23.9           0.001          193.16427     -2206.6558      12.758874      2869.7442      10246.592    
ec    24000  24             0.001          204.00583     -2207.3726      13.474979      2909.3532      10246.592    
ec    24100  24.1           0.001          197.05387     -2206.9138      13.015789      2776.9457      10246.592    
ec    24200  24.2           0.001          194.10455     -2206.7164      12.820981      3045.7931      10246.592    
ec    24300  24.3           0.001          182.54466     -2205.9532      12.057428      2850.7016      10246.592    
ec    24400  24.4           0.001          197.94204     -2206.9712      13.074455      2985.3378      10246.592    
ec    24500  24.5           0.001          205.05283     -2207.4411      13.544136      2961.8827      10246.592    
ec    24600  24.6           0.001          192.95122     -2206.6414      12.744801      2912.9339      10246.592    
ec    24700  24.7           0.001          201.36725     -2207.1979      13.300696      2950.5785      10246.592    
ec    24800  24.8           0.001          205.87864     -2207.496       13.598682      3049.2166      10246.592    
ec    24900  24.9           0.001          204.65843     -2207.4154      13.518085      3035.4546      10246.592    
ec    25000  25             0.001          196.82744     -2206.8966      13.000833      3004.8949      10246.592    
ec    25100  25.1           0.001          196.8366      -2206.8984      13.001438      2989.1251      10246.592    
ec    25200  25.2           0.001          193.9639      -2206.7079      12.81169       2891.4271      10246.592    
ec    25300  25.3           0.001          201.10555     -2207.1817      13.283411      2840.6683      10246.592    
ec    25400  25.4           0.001          193.96376     -2206.7082      12.811681      2904.2851      10246.592    
ec    25500  25.5           0.001          190.31599     -2206.467       12.57074       2926.4252      10246.592    
ec    25600  25.6           0.001          200.89788     -2207.1674      13.269693      2884.7428      10246.592    
ec    25700  25.7           0.001          204.89259     -2207.4318      13.533552      2898.6836      10246.592    
ec    25800  25.8           0.001          188.6138      -2206.3537      12.458306      2996.2669      10246.592    
ec    25900  25.9           0.001          195.02111     -2206.7781      12.881521      2888.5253      10246.592    
ec    26000  26             0.001          193.858       -2206.7003      12.804696      3071.6287      10246.592    
ec    26100  26.1           0.001          212.81681     -2207.9548      14.056962      3036.889       10246.592    
ec    26200  26.2           0.001          209.18957     -2207.7145      13.817376      3161.0871      10246.592    
ec    26300  26.3           0.001          203.02608     -2207.3067      13.410265      3060.9478      10246.592    
ec    26400  26.4           0.001          216.01392     -2208.1655      14.268137      3106.9105      10246.592    
ec    26500  26.5           0.001          206.89148     -2207.564       13.665582      2910.2098      10246.592    
ec    26600  26.6           0.001          195.29724     -2206.7964      12.899761      2925.8572      10246.592    
ec    26700  26.7           0.001          195.66565     -2206.821       12.924095      2893.0518      10246.592    
ec    26800  26.8           0.001          195.86533     -2206.8332      12.937284      2946.5624      10246.592    
ec    26900  26.9           0.001          189.71844     -2206.4281      12.53127       2863.3065      10246.592    
ec    27000  27             0.001          207.0924      -2207.5761      13.678854      2976.3038      10246.592    
ec    27100  27.1           0.001          200.94775     -2207.1698      13.272988      2968.2229      10246.592    
ec    27200  27.2           0.001          200.51095     -2207.1411      13.244136      2905.1948      10246.592    
ec    27300  27.3           0.001          212.50278     -2207.9347      14.036219      2922.6332      10246.592    
ec    27400  27.4           0.001          194.85167     -2206.7669      12.87033       2951.0209      10246.592    
ec    27500  27.5           0.001          185.81979     -2206.1687      12.273757      2978.1422      10246.592    
ec    27600  27.6           0.001          192.99329     -2206.643       12.74758       3065.7942      10246.592    
ec    27700  27.7           0.001          207.84941     -2207.6269      13.728856      2959.4738      10246.592    
ec    27800  27.8           0.001          201.53592     -2207.2084      13.311837      3001.2268      10246.592    
ec    27900  27.9           0.001          218.70171     -2208.3441      14.445671      3020.3759      10246.592    
ec    28000  28             0.001          207.71965     -2207.6166      13.720285      3169.9593      10246.592    
ec    28100  28.1           0.001          205.82497     -2207.4925      13.595138      3022.4225      10246.592    
ec    28200  28.2           0.001          194.31785     -2206.7321      12.83507       2822.82        10246.592    
ec    28300  28.3           0.001          188.33045     -2206.3365      12.43959       2785.9496      10246.592    
ec    28400  28.4           0.001          183.48903     -2206.0158      12.119805      2799.131       10246.592    
ec    28500  28.5           0.001          189.04451     -2206.384       12.486756      2778.758       10246.592    
ec    28600  28.6           0.001          198.80763     -2207.0284      13.131628      2960.1515      10246.592    
ec    28700  28.7           0.001          201.02559     -2207.1756      13.278129      2910.1217      10246.592    
ec    28800  28.8           0.001          189.72476     -2206.428       12.531687      2939.5607      10246.592    
ec    28900  28.9           0.001          202.5033      -2207.2721      13.375734      3077.4035      10246.592    
ec    29000  29             0.001          206.47328     -2207.5352      13.63796       3032.1518      10246.592    
ec    29100  29.1           0.001          206.99704     -2207.5703      13.672555      2927.1884      10246.592    
ec    29200  29.2           0.001          196.45579     -2206.8727      12.976285      3049.0942      10246.592    
ec    29300  29.3           0.001          196.08498     -2206.8477      12.951792      3022.4785      10246.592    
ec    29400  29.4           0.001          203.70624     -2207.3524      13.455191      3022.5218      10246.592    
ec    29500  29.5           0.001          204.35704     -2207.3955      13.498178      3058.8992      10246.592    
ec    29600  29.6           0.001          209.35627     -2207.7266      13.828387      2964.8881      10246.592    
ec    29700  29.7           0.001          191.55134     -2206.5498      12.652337      2805.8359      10246.592    
ec    29800  29.8           0.001          195.99324     -2206.8421      12.945733      2890.1899      10246.592    
ec    29900  29.9           0.001          202.99547     -2207.3057      13.408244      2907.6123      10246.592    
Fix halt condition for fix-id myhalt met on step 30000 with value 30 (../fix_halt.cpp:240)
ec    30000  30             0.001          195.24686     -2206.7925      12.896433      2988.603       10246.592    
Loop time of 4.5955 on 4 procs for 30000 steps with 512 atoms

Performance: 564.029 ns/day, 0.043 hours/ns, 6528.119 timesteps/s, 3.342 Matom-step/s
96.0% CPU use with 4 MPI tasks x no OpenMP threads

MPI task timing breakdown:
Section |  min time  |  avg time  |  max time  |%varavg| %total
---------------------------------------------------------------
Pair    | 3.2807     | 3.3435     | 3.4344     |   3.3 | 72.76
Neigh   | 0          | 0          | 0          |   0.0 |  0.00
Comm    | 1.0245     | 1.1135     | 1.1743     |   5.6 | 24.23
Output  | 0.0054102  | 0.0074546  | 0.013431   |   4.0 |  0.16
Modify  | 0.036176   | 0.037691   | 0.038575   |   0.5 |  0.82
Other   |            | 0.09337    |            |       |  2.03

Nlocal:            128 ave         128 max         128 min
Histogram: 4 0 0 0 0 0 0 0 0 0
Nghost:            783 ave         783 max         783 min
Histogram: 4 0 0 0 0 0 0 0 0 0
Neighs:              0 ave           0 max           0 min
Histogram: 4 0 0 0 0 0 0 0 0 0
FullNghs:         4352 ave        4352 max        4352 min
Histogram: 4 0 0 0 0 0 0 0 0 0

Total # of neighbors = 17408
Ave neighs/atom = 34
Neighbor list builds = 0
Dangerous builds = 0

unfix myhalt

fix NPT all npt temp ${temp} ${temp} ${tau_T} iso 0.0 0.0 1.0
fix NPT all npt temp 400 ${temp} ${tau_T} iso 0.0 0.0 1.0
fix NPT all npt temp 400 400 ${tau_T} iso 0.0 0.0 1.0
fix NPT all npt temp 400 400 0.1 iso 0.0 0.0 1.0



fix myhalt all halt 100 v_t >= 60.0 error continue

run 10000000
WARNING: One or more atoms are time integrated more than once (../modify.cpp:296)
Per MPI rank memory allocation (min/avg/max) = 3.215 | 3.215 | 3.215 Mbytes
   Step          Time            Dt            Temp          PotEng         KinEng         Press          Volume    
ec    30000  30             0.001          195.24686     -2206.7925      12.896433      2988.603       10246.592    
ec    30100  30.1           0.001          310.06663     -2200.5541      20.480501     -2820.9678      10321.667    
ec    30200  30.2           0.001          473.48217     -2188.5859      31.274413      2780.4026      10292.128    
ec    30300  30.3           0.001          604.10902     -2174.7151      39.902569     -2614.6047      10381.147    
ec    30400  30.4           0.001          807.01813     -2167.0495      53.305108      2629.3482      10354.435    
ec    30500  30.5           0.001          969.85025     -2159.3485      64.060484     -2519.274       10433.088    
ec    30600  30.6           0.001          986.28648     -2145.8335      65.146129      2068.8559      10411.471    
ec    30700  30.7           0.001          1061.28       -2141.8032      70.099598     -1504.6508      10461.473    
ec    30800  30.8           0.001          1139.8518     -2142.2141      75.289413      1105.2745      10441.729    
ec    30900  30.9           0.001          1067.9686     -2136.9752      70.541394     -236.89313      10460.771    
ec    31000  31             0.001          1198.4961     -2146.8211      79.162983     -379.80061      10454.792    
ec    31100  31.1           0.001          1142.205      -2146.8119      75.444849      397.12048      10443.763    
ec    31200  31.2           0.001          1098.4368     -2147.1048      72.553877     -1220.4968      10457.57     
ec    31300  31.3           0.001          1009.2596     -2145.257       66.663545      1758.3854      10423.552    
ec    31400  31.4           0.001          992.53383     -2147.9101      65.558779     -2032.1917      10458.25     
ec    31500  31.5           0.001          1011.1743     -2152.9284      66.790018      2484.5947      10404.218    
ec    31600  31.6           0.001          1054.0691     -2158.2182      69.623305     -3208.223       10457.999    
ec    31700  31.7           0.001          976.90455     -2156.2162      64.526435      3142.1922      10389.604    
ec    31800  31.8           0.001          923.87997     -2154.7015      61.024059     -3365.9326      10456.613    
ec    31900  31.9           0.001          900.25623     -2155.2134      59.463665      3590.4971      10381.141    
ec    32000  32             0.001          872.13696     -2155.237       57.606333     -3417.227       10452.515    
ec    32100  32.1           0.001          865.33513     -2156.1685      57.157059      3458.7195      10378.759    
ec    32200  32.2           0.001          861.99353     -2157.1896      56.93634      -3013.0266      10445.175    
ec    32300  32.3           0.001          961.86597     -2164.7664      63.533108      2533.3281      10381.759    
ec    32400  32.4           0.001          935.73332     -2164.0653      61.806995     -2545.7777      10434.611    
ec    32500  32.5           0.001          934.92811     -2164.0328      61.75381       1706.8345      10389.471    
ec    32600  32.6           0.001          889.95697     -2162.1958      58.783379     -1393.4389      10421.514    
ec    32700  32.7           0.001          781.06706     -2155.1945      51.59099       977.51236      10399.693    
ec    32800  32.8           0.001          792.39872     -2157.2988      52.339468      25.074688      10406.423    
ec    32900  32.9           0.001          812.23811     -2159.0136      53.649898     -497.92058      10411.695    
ec    33000  33             0.001          875.51801     -2163.5813      57.829658      1141.2397      10391.445    
ec    33100  33.1           0.001          898.97127     -2165.8236      59.378791     -2024.9891      10422.424    
ec    33200  33.2           0.001          858.68259     -2163.1881      56.717646      2326.2123      10378.76     
ec    33300  33.3           0.001          831.44199     -2161.978       54.918352     -2730.2818      10430.654    
ec    33400  33.4           0.001          908.19017     -2167.4987      59.987718      2825.6085      10369.799    
ec    33500  33.5           0.001          829.13985     -2162.3343      54.76629      -3186.4528      10435.233    
ec    33600  33.6           0.001          814.73081     -2161.904       53.814546      3379.3986      10364.954    
ec    33700  33.7           0.001          806.12416     -2162.0121      53.24606      -3365.0035      10434.958    
ec    33800  33.8           0.001          786.78508     -2160.8152      51.968677      3383.4977      10365.002    
ec    33900  33.9           0.001          852.57913     -2165.9474      56.314501     -3214.4507      10430.504    
ec    34000  34             0.001          849.36413     -2165.627       56.102144      2693.541       10369.158    
ec    34100  34.1           0.001          908.10802     -2169.9612      59.982291     -2729.8245      10422.567    
ec    34200  34.2           0.001          853.79852     -2166.3148      56.395043      1936.4757      10376.363    
ec    34300  34.3           0.001          845.27863     -2166.2672      55.832289     -1660.9408      10412.477    
ec    34400  34.4           0.001          810.7409      -2164.0202      53.551004      1066.2247      10385.031    
ec    34500  34.5           0.001          773.55403     -2162.1801      51.09474      -445.92271      10401.4      
ec    34600  34.6           0.001          760.82827     -2161.4481      50.254179      251.56121      10393.722    
ec    34700  34.7           0.001          766.72646     -2162.6572      50.643766      403.04371      10390.782    
ec    34800  34.8           0.001          843.18908     -2167.8311      55.694269     -895.36958      10401.357    
ec    34900  34.9           0.001          892.94983     -2171.4321      58.981063      745.92795      10381.918    
ec    35000  35             0.001          812.77438     -2166.0038      53.68532      -1361.6818      10407.019    
ec    35100  35.1           0.001          759.78506     -2162.9409      50.185272      1684.9775      10375.279    
ec    35200  35.2           0.001          747.11788     -2162.7799      49.348581     -1708.4536      10410.154    
ec    35300  35.3           0.001          816.60452     -2167.7859      53.938308      1742.556       10371.218    
ec    35400  35.4           0.001          838.48461     -2169.2699      55.38353      -2112.5525      10410.705    
ec    35500  35.5           0.001          798.00141     -2166.9408      52.709536      1847.3675      10369.952    
ec    35600  35.6           0.001          748.36608     -2163.9189      49.431027     -1754.9773      10408.706    
ec    35700  35.7           0.001          732.37871     -2163.2417      48.37503       1826.892       10370.712    
ec    35800  35.8           0.001          807.30773     -2168.6276      53.324237     -1700.623       10404.54     
ec    35900  35.9           0.001          765.32486     -2165.9262      50.551187      1427.5118      10373.208    
ec    36000  36             0.001          689.85501     -2161.4284      45.566258     -925.90821      10398.406    
ec    36100  36.1           0.001          656.58258     -2159.6694      43.368549      1220.7571      10376.491    
ec    36200  36.2           0.001          645.82727     -2159.8358      42.65814      -402.06615      10391.531    
ec    36300  36.3           0.001          683.82896     -2162.853       45.168225      559.8121       10380.338    
ec    36400  36.4           0.001          709.10663     -2164.9393      46.837864     -64.58691       10384.365    
ec    36500  36.5           0.001          681.48139     -2163.3645      45.013164     -32.263406      10384.222    
ec    36600  36.6           0.001          666.99242     -2162.7413      44.056139      624.86033      10377.851    
ec    36700  36.7           0.001          625.68675     -2160.3997      41.32782      -289.96556      10387.426    
ec    36800  36.8           0.001          629.67768     -2160.9209      41.591429      1067.5767      10372.571    
ec    36900  36.9           0.001          654.32159     -2162.5776      43.219206     -674.93484      10389.807    
ec    37000  37             0.001          561.04511     -2156.4609      37.058114      1616.8109      10368.891    
ec    37100  37.1           0.001          509.10149     -2153.1926      33.627138     -416.71442      10390.916    
ec    37200  37.2           0.001          485.282       -2152.0571      32.053815      1850.5726      10366.993    
ec    37300  37.3           0.001          536.08571     -2155.6758      35.409498     -502.21128      10390.513    
ec    37400  37.4           0.001          634.76398     -2162.4203      41.927388      1325.0347      10366.474    
ec    37500  37.5           0.001          658.59449     -2164.0863      43.50144      -662.21512      10388.284    
ec    37600  37.6           0.001          657.20046     -2164.2237      43.409361      1164.5682      10366.637    
ec    37700  37.7           0.001          636.06415     -2163.2549      42.013267     -467.57412      10384.655    
ec    37800  37.8           0.001          702.30906     -2168.11        46.388872      916.20165      10367.515    
ec    37900  37.9           0.001          705.32368     -2168.9197      46.587993     -409.99697      10379.731    
ec    38000  38             0.001          760.8494      -2173.1305      50.255574      308.8048       10368.92     
ec    38100  38.1           0.001          756.05323     -2173.5136      49.938778     -258.1697       10374.767    
ec    38200  38.2           0.001          746.10446     -2173.7761      49.281643     -208.04496      10370.158    
ec    38300  38.3           0.001          831.7406      -2180.2861      54.938075     -111.67574      10368.807    
ec    38400  38.4           0.001          795.08221     -2178.7695      52.516718     -685.92794      10371.076    
ec    38500  38.5           0.001          819.20996     -2180.7858      54.110403      47.233404      10364.049    
ec    38600  38.6           0.001          845.75356     -2183.0476      55.863658     -806.58948      10372.131    
ec    38700  38.7           0.001          779.37948     -2178.7432      51.479522      374.07131      10360.464    
ec    38800  38.8           0.001          760.90438     -2178.0267      50.259206     -916.26072      10373.917    
ec    38900  38.9           0.001          683.74539     -2173.036       45.162705      779.74908      10358.225    
ec    39000  39             0.001          669.7327      -2172.4018      44.23714      -863.74935      10374.668    
ec    39100  39.1           0.001          655.17849     -2171.7956      43.275807      948.8315       10356.689    
ec    39200  39.2           0.001          600.23877     -2168.1586      39.646932     -871.11456      10375.187    
ec    39300  39.3           0.001          717.98461     -2176.1081      47.424272      773.85377      10356.315    
ec    39400  39.4           0.001          639.22572     -2170.5274      42.222095     -750.14055      10374.478    
ec    39500  39.5           0.001          746.04046     -2177.6094      49.277415      636.32477      10357.106    
ec    39600  39.6           0.001          669.59499     -2172.3303      44.228044     -696.68957      10373.372    
ec    39700  39.7           0.001          677.78467     -2172.9075      44.768988      680.62608      10358.525    
ec    39800  39.8           0.001          687.58324     -2173.8925      45.416203     -486.6191       10370.19     
ec    39900  39.9           0.001          673.2546      -2173.2303      44.469769      360.12034      10360.931    
ec    40000  40             0.001          735.01677     -2177.8282      48.549279     -336.37768      10365.805    
ec    40100  40.1           0.001          777.808       -2180.9879      51.375723     -434.94426      10364.248    
ec    40200  40.2           0.001          795.79695     -2182.5389      52.563928      126.45023      10358.276    
ec    40300  40.3           0.001          745.18336     -2179.7806      49.220802     -1074.5506      10369.143    
ec    40400  40.4           0.001          754.81188     -2180.9426      49.856784      936.88945      10349.084    
ec    40500  40.5           0.001          693.10139     -2177.5247      45.780687     -1707.0741      10375.072    
ec    40600  40.6           0.001          666.81186     -2176.4316      44.044213      1926.1669      10338.447    
ec    40700  40.7           0.001          652.74449     -2175.9297      43.115036     -2343.8758      10382.553    
ec    40800  40.8           0.001          663.70752     -2176.9293      43.839166      2612.2152      10329.853    
ec    40900  40.9           0.001          711.23917     -2180.0537      46.978723     -3170.7306      10389.936    
ec    41000  41             0.001          718.37768     -2180.5023      47.450235      2995.2676      10324.775    
ec    41100  41.1           0.001          708.3654      -2179.4732      46.788905     -3614.4464      10394.436    
ec    41200  41.2           0.001          722.96127     -2180.4067      47.75299       3112.1022      10324.829    
ec    41300  41.3           0.001          684.15181     -2177.3199      45.189551     -3391.0727      10394.062    
ec    41400  41.4           0.001          724.21432     -2179.444       47.835757      2746.946       10331.254    
ec    41500  41.5           0.001          668.87157     -2175.0647      44.180261     -2532.5589      10388.925    
ec    41600  41.6           0.001          658.9517      -2173.6646      43.525034      2010.7217      10343.028    
ec    41700  41.7           0.001          599.55996     -2169.749       39.602095     -1149.2949      10378.015    
ec    41800  41.8           0.001          577.85362     -2167.9827      38.168349      897.66423      10357.82     
ec    41900  41.9           0.001          668.95892     -2174.3754      44.186031      28.069772      10363.144    
ec    42000  42             0.001          652.62129     -2173.1806      43.106898     -991.94375      10373.396    
ec    42100  42.1           0.001          737.4556      -2178.9484      48.710368      1399.2025      10346.48     
ec    42200  42.2           0.001          635.97395     -2172.305       42.007309     -2391.2502      10387.222    
ec    42300  42.3           0.001          603.00737     -2170.6401      39.829803      3029.1972      10331.361    
ec    42400  42.4           0.001          554.34949     -2167.819       36.615856     -3103.6299      10396.947    
ec    42500  42.5           0.001          493.57164     -2164.5841      32.601361      4194.5089      10320.203    
ec    42600  42.6           0.001          497.57267     -2165.1395      32.865637     -3574.9158      10401.628    
ec    42700  42.7           0.001          523.3492      -2167.6244      34.568227      4432.4898      10315.788    
ec    42800  42.8           0.001          506.886       -2166.5695      33.480801     -3718.1389      10401.195    
ec    42900  42.9           0.001          582.91875     -2171.6079      38.502911      4131.5969      10318.163    
ec    43000  43             0.001          562.12968     -2170.2927      37.129752     -3432.4438      10395.919    
ec    43100  43.1           0.001          624.58172     -2173.912       41.254831      3276.9262      10326.027    
ec    43200  43.2           0.001          547.48427     -2168.7312      36.162395     -2342.0574      10386.624    
ec    43300  43.3           0.001          513.93101     -2165.8617      33.946137      2585.554       10337.725    
ec    43400  43.4           0.001          531.64572     -2166.9426      35.116228     -1084.2386      10376.755    
ec    43500  43.5           0.001          493.07439     -2163.9416      32.568517      1464.7702      10351.201    
ec    43600  43.6           0.001          578.84972     -2169.3865      38.234144     -104.84644      10367.077    
ec    43700  43.7           0.001          658.38377     -2174.3417      43.487521     -80.964013      10363.26     
ec    43800  43.8           0.001          717.39872     -2177.9956      47.385573      241.91924      10359.089    
ec    43900  43.9           0.001          789.00986     -2182.4925      52.115627     -1075.2844      10371.319    
ec    44000  44             0.001          783.7661      -2182.1378      51.769267      776.56039      10352.279    
ec    44100  44.1           0.001          822.94794     -2184.8519      54.357303     -1646.7716      10375.68     
ec    44200  44.2           0.001          771.44463     -2181.399       50.95541       1172.2628      10349.445    
ec    44300  44.3           0.001          764.2677      -2180.9829      50.48136      -1701.288       10377.988    
ec    44400  44.4           0.001          774.00566     -2181.7916      51.124571      1185.7882      10348.908    
ec    44500  44.5           0.001          720.79352     -2178.3479      47.609806     -1535.5712      10377.813    
ec    44600  44.6           0.001          744.48867     -2180.2106      49.174916      879.12013      10350.612    
ec    44700  44.7           0.001          722.82483     -2178.8281      47.743978     -1372.3136      10376.118    
ec    44800  44.8           0.001          731.94977     -2179.5177      48.346698      836.08073      10352.126    
ec    44900  44.9           0.001          677.23503     -2175.8954      44.732684     -984.66448      10373.354    
ec    45000  45             0.001          642.65295     -2173.6225      42.448471      755.93975      10355.094    
ec    45100  45.1           0.001          629.69228     -2172.9675      41.592393     -652.83098      10369.923    
ec    45200  45.2           0.001          620.45137     -2172.1573      40.982013      693.38355      10357.297    
ec    45300  45.3           0.001          581.61833     -2169.5223      38.417016     -189.61048      10366.553    
ec    45400  45.4           0.001          502.23302     -2164.0559      33.173462      573.7257       10361.4      
ec    45500  45.5           0.001          504.61165     -2164.1358      33.330576      379.41746      10363.333    
ec    45600  45.6           0.001          464.52463     -2161.4593      30.682751      455.05742      10364.545    
ec    45700  45.7           0.001          552.2954      -2167.3761      36.480179      672.18636      10359.694    
ec    45800  45.8           0.001          612.46215     -2171.4842      40.45431      -451.9672       10368.224    
ec    45900  45.9           0.001          690.26745     -2176.4717      45.5935        635.25796      10356.404    
ec    46000  46             0.001          734.9334      -2179.2991      48.543772     -958.58157      10370.625    
ec    46100  46.1           0.001          690.41466     -2176.2387      45.603223      995.53911      10353.172    
ec    46200  46.2           0.001          676.69601     -2175.4923      44.69708      -1037.5163      10372.95     
ec    46300  46.3           0.001          622.86589     -2172.2112      41.141496      1246.3977      10351.466    
ec    46400  46.4           0.001          643.37524     -2173.9569      42.496179     -1081.5091      10373.872    
ec    46500  46.5           0.001          715.43099     -2178.9621      47.2556        936.15657      10350.685    
ec    46600  46.6           0.001          744.31101     -2180.9217      49.163182     -1348.6482      10374.111    
ec    46700  46.7           0.001          786.64901     -2183.4734      51.959688      688.4651       10351.7      
ec    46800  46.8           0.001          739.48311     -2180.4541      48.844289     -1230.1449      10372.81     
ec    46900  46.9           0.001          775.99258     -2182.7315      51.255811      602.68076      10353.771    
ec    47000  47             0.001          697.03546     -2177.8053      46.04054      -975.89795      10369.922    
ec    47100  47.1           0.001          737.70793     -2180.6296      48.727035      269.68451      10356.917    
ec    47200  47.2           0.001          694.52766     -2178.0621      45.874895     -518.34306      10365.13     
ec    47300  47.3           0.001          693.54521     -2178.0729      45.810002     -92.189635      10360.865    
ec    47400  47.4           0.001          609.47413     -2172.7326      40.256945      442.20198      10358.637    
ec    47500  47.5           0.001          593.66838     -2171.9903      39.212945     -342.74838      10365.893    
ec    47600  47.6           0.001          513.51033     -2166.8687      33.91835       1244.2706      10351.785    
ec    47700  47.7           0.001          516.66734     -2167.5986      34.126877     -712.05729      10371.477    
ec    47800  47.8           0.001          531.78732     -2168.8759      35.125581      1738.3917      10344.329    
ec    47900  47.9           0.001          560.87584     -2171.2188      37.046934     -1704.2859      10377.375    
ec    48000  48             0.001          597.47223     -2173.6287      39.464197      2144.904       10337.772    
ec    48100  48.1           0.001          599.58709     -2174.5471      39.603887     -2319.1517      10380.947    
ec    48200  48.2           0.001          625.36177     -2176.5153      41.306354      2604.0176      10330.399    
ec    48300  48.3           0.001          592.90943     -2175.2567      39.162815     -2590.6876      10382.318    
ec    48400  48.4           0.001          595.57692     -2175.6953      39.339007      2860.1418      10326.779    
ec    48500  48.5           0.001          579.05665     -2175.2704      38.247812     -2364.5912      10380.739    
ec    48600  48.6           0.001          556.26071     -2174.0024      36.742096      2786.2822      10327.046    
ec    48700  48.7           0.001          510.24785     -2171.7326      33.702858     -1949.07        10376.212    
ec    48800  48.8           0.001          571.74539     -2175.8928      37.764889      2061.0928      10333.693    
ec    48900  48.9           0.001          564.22063     -2175.681       37.267864     -1461.9716      10368.499    
ec    49000  49             0.001          690.65842     -2183.6759      45.619325      709.74533      10345.322    
ec    49100  49.1           0.001          698.1247      -2183.9863      46.112487     -632.00121      10357.261    
ec    49200  49.2           0.001          754.45599     -2186.9928      49.833277     -829.30261      10360.467    
ec    49300  49.3           0.001          664.03805     -2180.6583      43.860998      992.5047       10343.905    
ec    49400  49.4           0.001          683.66241     -2181.4942      45.157224     -1979.9847      10376.296    
ec    49500  49.5           0.001          578.32408     -2174.448       38.199424      2705.4896      10330.522    
ec    49600  49.6           0.001          623.51663     -2177.1516      41.184479     -3103.8412      10390.65     
ec    49700  49.7           0.001          584.61543     -2174.4223      38.61498       3737.3398      10320.329    
ec    49800  49.8           0.001          696.87636     -2181.4571      46.030032     -4168.8433      10400.862    
ec    49900  49.9           0.001          654.97392     -2178.0555      43.262294      4255.4691      10315.473    
ec    50000  50             0.001          712.65018     -2181.5691      47.071922     -4640.5541      10406.197    
ec    50100  50.1           0.001          697.44839     -2179.6456      46.067815      4273.2617      10316.669    
ec    50200  50.2           0.001          713.42886     -2180.2246      47.123356     -4317.8128      10405.317    
ec    50300  50.3           0.001          661.71713     -2176.2311      43.707697      3847.4014      10323.288    
ec    50400  50.4           0.001          659.88594     -2175.8242      43.586743     -3409.9037      10398.993    
ec    50500  50.5           0.001          682.88462     -2176.8475      45.10585       2776.6342      10334.85     
ec    50600  50.6           0.001          700.78911     -2177.7245      46.288476     -2382.9707      10388.765    
ec    50700  50.7           0.001          717.25068     -2178.2241      47.375795      1476.9099      10349.186    
ec    50800  50.8           0.001          759.57635     -2180.8443      50.171487     -1266.1126      10376.384    
ec    50900  50.9           0.001          800.2159      -2182.8315      52.855808     -123.53041      10364.211    
ec    51000  51             0.001          699.33124     -2176.1721      46.192181      327.20523      10362.777    
ec    51100  51.1           0.001          714.11106     -2176.8484      47.168417     -1186.5622      10377.837    
ec    51200  51.2           0.001          632.90079     -2171.8269      41.804321      1707.5823      10349.863    
ec    51300  51.3           0.001          613.04679     -2170.5302      40.492926     -2025.8121      10388.91     
ec    51400  51.4           0.001          644.43452     -2172.9952      42.566146      2609.8735      10339.306    
ec    51500  51.5           0.001          649.2826      -2173.4067      42.886372     -2897.4231      10396.902    
ec    51600  51.6           0.001          688.94286     -2176.0286      45.506008      3091.5464      10332.63     
ec    51700  51.7           0.001          716.17162     -2177.8922      47.304521     -3641.0707      10401.5      
ec    51800  51.8           0.001          735.32696     -2178.7201      48.569768      3295.2283      10330.171    
ec    51900  51.9           0.001          689.53168     -2175.5137      45.544901     -3458.055       10401.57     
ec    52000  52             0.001          606.25177     -2169.7616      40.044102      3520.7921      10331.947    
ec    52100  52.1           0.001          539.8733      -2165.5284      35.659675     -2700.9977      10397.686    
ec    52200  52.2           0.001          531.88637     -2165.0432      35.132124      3207.0822      10337.6      
ec    52300  52.3           0.001          582.46979     -2168.5712      38.473256     -2123.7901      10390.289    
ec    52400  52.4           0.001          629.63804     -2171.6098      41.58881       1986.0692      10346.832    
ec    52500  52.5           0.001          688.79736     -2175.4774      45.496398     -1431.9941      10380.386    
ec    52600  52.6           0.001          710.62464     -2176.7613      46.938132      718.32072      10357.778    
ec    52700  52.7           0.001          751.19173     -2179.745       49.617666     -475.55135      10368.197    
ec    52800  52.8           0.001          757.64894     -2180.087       50.044178     -624.36085      10369.058    
ec    52900  52.9           0.001          735.15762     -2179.1008      48.558583      683.30149      10355.875    
ec    53000  53             0.001          677.09142     -2174.9157      44.723198     -1420.1952      10379.981    
ec    53100  53.1           0.001          628.69687     -2172.2258      41.526644      1949.5334      10345.344    
ec    53200  53.2           0.001          621.92836     -2171.6579      41.079571     -2232.7197      10389.436    
ec    53300  53.3           0.001          622.23662     -2172.0168      41.099932      2782.0594      10337.34     
ec    53400  53.4           0.001          678.57364     -2175.4869      44.821101     -3106.3694      10395.972    
ec    53500  53.5           0.001          628.60432     -2172.0577      41.520531      3308.6856      10332.815    
ec    53600  53.6           0.001          642.80271     -2173.0395      42.458362     -3232.3003      10398.481    
ec    53700  53.7           0.001          597.41172     -2169.8759      39.460199      3354.4788      10331.922    
ec    53800  53.8           0.001          591.80408     -2169.9011      39.089804     -2886.3427      10396.743    
ec    53900  53.9           0.001          598.0087      -2170.0376      39.499631      3037.0063      10334.655    
ec    54000  54             0.001          603.48481     -2170.8711      39.861339     -2430.9526      10390.857    
ec    54100  54.1           0.001          591.74605     -2169.9783      39.085971      2423.2844      10340.277    
ec    54200  54.2           0.001          580.06992     -2169.9225      38.31474      -1589.0392      10380.865    
ec    54300  54.3           0.001          582.66439     -2170.3151      38.48611       1477.6594      10348.04     
ec    54400  54.4           0.001          571.25572     -2170.3235      37.732545     -421.86721      10368.585    
ec    54500  54.5           0.001          598.91763     -2172.6858      39.559668      281.16597      10356.936    
ec    54600  54.6           0.001          594.68982     -2173.3267      39.280413      515.79917      10355.125    
ec    54700  54.7           0.001          617.29776     -2175.4259      40.773711     -778.76413      10365.189    
ec    54800  54.8           0.001          591.7861      -2174.6177      39.088616      1378.4488      10342.896    
ec    54900  54.9           0.001          594.18629     -2175.3085      39.247153     -1658.3951      10372.4      
ec    55000  55             0.001          597.85674     -2176.0819      39.489594      2072.704       10334.339    
ec    55100  55.1           0.001          592.41683     -2175.9461      39.130277     -2331.8728      10377.559    
ec    55200  55.2           0.001          598.42886     -2176.2678      39.527384      2508.4471      10330.803    
ec    55300  55.3           0.001          606.97799     -2176.6631      40.09207      -2567.3623      10380.246    
ec    55400  55.4           0.001          561.86721     -2173.1093      37.112416      2526.8221      10332.376    
ec    55500  55.5           0.001          513.52227     -2169.5235      33.919139     -1862.6664      10379.953    
ec    55600  55.6           0.001          484.10532     -2166.9515      31.976093      2416.1561      10337.334    
ec    55700  55.7           0.001          466.98979     -2165.4589      30.845579     -1334.5738      10378.084    
ec    55800  55.8           0.001          479.41425     -2165.4676      31.666239      1950.5407      10344.561    
ec    55900  55.9           0.001          494.95493     -2165.8588      32.69273      -814.79396      10374.672    
ec    56000  56             0.001          472.50138     -2163.3754      31.20963       1465.4644      10352.362    
ec    56100  56.1           0.001          444.61621     -2160.9101      29.36776      -57.642187      10370.947    
ec    56200  56.2           0.001          437.41431     -2159.8478      28.892061      986.83777      10360.203    
ec    56300  56.3           0.001          466.36085     -2161.4205      30.804036      487.94281      10366.438    
ec    56400  56.4           0.001          486.47293     -2162.3998      32.132478      431.29873      10366.338    
ec    56500  56.5           0.001          541.92577     -2165.9644      35.795245      645.30221      10361.867    
ec    56600  56.6           0.001          571.24519     -2167.8962      37.731849     -155.27194      10370.61     
ec    56700  56.7           0.001          606.97189     -2170.5572      40.091667      967.88949      10356.248    
ec    56800  56.8           0.001          585.57917     -2169.4844      38.678637     -500.18603      10372.585    
ec    56900  56.9           0.001          627.02307     -2172.8802      41.416086      1114.5327      10351.833    
ec    57000  57             0.001          596.80722     -2171.558       39.420271     -1006.4564      10372.897    
ec    57100  57.1           0.001          561.8138      -2170.1928      37.108888      1517.3361      10347.304    
ec    57200  57.2           0.001          542.87216     -2169.5644      35.857756     -854.68063      10371.117    
ec    57300  57.3           0.001          522.25955     -2169.3832      34.496254      1472.9893      10345.075    
ec    57400  57.4           0.001          566.30764     -2172.9413      37.405715     -887.72826      10368.717    
ec    57500  57.5           0.001          529.92406     -2171.3689      35.002509      1378.8692      10344.193    
ec    57600  57.6           0.001          648.95031     -2179.4513      42.864423     -1060.964       10365.888    
ec    57700  57.7           0.001          584.61915     -2175.5933      38.615226      976.60931      10345.942    
ec    57800  57.8           0.001          649.31011     -2180.3046      42.888189     -862.64836      10361.921    
ec    57900  57.9           0.001          547.4005      -2174.4578      36.156862      606.15227      10347.393    
ec    58000  58             0.001          625.21663     -2180.3275      41.296767     -328.24774      10355.609    
ec    58100  58.1           0.001          525.33848     -2174.5821      34.699622      186.55389      10349.703    
ec    58200  58.2           0.001          565.30248     -2177.6318      37.339322      294.27015      10349.148    
ec    58300  58.3           0.001          453.91059     -2170.3638      29.981672     -11.217981      10354.33     
ec    58400  58.4           0.001          463.30273     -2171.0437      30.602041      1215.0391      10343.719    
ec    58500  58.5           0.001          467.07111     -2170.8589      30.85095      -574.48787      10362.167    
ec    58600  58.6           0.001          536.94171     -2175.2635      35.466038      1449.0118      10338.947    
ec    58700  58.7           0.001          627.29512     -2180.3028      41.434056     -1732.6664      10371.723    
ec    58800  58.8           0.001          670.30739     -2182.6053      44.275099      1896.2215      10333.208    
ec    58900  58.9           0.001          686.05754     -2182.8781      45.315427     -2614.8435      10381.24     
ec    59000  59             0.001          644.57995     -2179.9967      42.575752      2755.2541      10326.799    
ec    59100  59.1           0.001          701.16952     -2183.4194      46.313603     -3330.1933      10389.055    
ec    59200  59.2           0.001          627.96738     -2178.6039      41.47846       3397.4018      10321.864    
ec    59300  59.3           0.001          695.58754     -2183.0921      45.944903     -3574.3541      10392.656    
ec    59400  59.4           0.001          614.13795     -2177.622       40.565         3322.459       10322.433    
ec    59500  59.5           0.001          690.11345     -2182.5952      45.583328     -3244.2178      10390.419    
ec    59600  59.6           0.001          640.0017      -2178.8829      42.27335       2599.4844      10330.368    
ec    59700  59.7           0.001          730.04749     -2184.7307      48.221048     -2458.6666      10381.666    
ec    59800  59.8           0.001          702.03372     -2182.0564      46.370685      1202.0961      10345.479    
ec    59900  59.9           0.001          783.98405     -2187.1166      51.783663     -1101.2757      10367.571    
Fix halt condition for fix-id myhalt met on step 60000 with value 60 (../fix_halt.cpp:240)
ec    60000  60             0.001          775.78744     -2185.6653      51.242261     -675.83796      10364.875    
Loop time of 4.07513 on 4 procs for 30000 steps with 512 atoms

Performance: 636.053 ns/day, 0.038 hours/ns, 7361.724 timesteps/s, 3.769 Matom-step/s
95.9% CPU use with 4 MPI tasks x no OpenMP threads

MPI task timing breakdown:
Section |  min time  |  avg time  |  max time  |%varavg| %total
---------------------------------------------------------------
Pair    | 2.4329     | 2.6389     | 2.7326     |   7.4 | 64.76
Neigh   | 0          | 0          | 0          |   0.0 |  0.00
Comm    | 0.96694    | 1.056      | 1.2576     |  11.4 | 25.91
Output  | 0.0048233  | 0.0068655  | 0.012864   |   4.2 |  0.17
Modify  | 0.29123    | 0.29964    | 0.30613    |   1.0 |  7.35
Other   |            | 0.07374    |            |       |  1.81

Nlocal:            128 ave         131 max         123 min
Histogram: 1 0 0 0 0 0 1 0 1 1
Nghost:            783 ave         788 max         780 min
Histogram: 1 1 0 1 0 0 0 0 0 1
Neighs:              0 ave           0 max           0 min
Histogram: 4 0 0 0 0 0 0 0 0 0
FullNghs:         4373 ave        4479 max        4206 min
Histogram: 1 0 0 0 0 1 0 0 1 1

Total # of neighbors = 17492
Ave neighs/atom = 34.164062
Neighbor list builds = 0
Dangerous builds = 0

unfix myhalt

fix myhalt all halt 100 v_t >= 90.0 error continue

unfix NPT

fix NVT all nvt temp ${temp} ${temp} ${tau_T}
fix NVT all nvt temp 400 ${temp} ${tau_T}
fix NVT all nvt temp 400 400 ${tau_T}
fix NVT all nvt temp 400 400 0.1

run 10000000
WARNING: One or more atoms are time integrated more than once (../modify.cpp:296)
Per MPI rank memory allocation (min/avg/max) = 3.215 | 3.215 | 3.215 Mbytes
   Step          Time            Dt            Temp          PotEng         KinEng         Press          Volume    
ec    60000  60             0.001          775.78744     -2185.6653      51.242261     -675.83796      10364.875    
ec    60100  60.1           0.001          1169.4079     -2169.9208      77.241652      4330.6213      10364.875    
ec    60200  60.2           0.001          1307.7028     -2143.9251      86.376301      9034.2355      10364.875    
ec    60300  60.3           0.001          1347.5329     -2123.9029      89.007153      12250.718      10364.875    
ec    60400  60.4           0.001          1513.8451     -2125.0421      99.992395      13157.841      10364.875    
ec    60500  60.5           0.001          1596.3416     -2131.1243      105.44145      12798.58       10364.875    
ec    60600  60.6           0.001          1585.2006     -2137.3079      104.70557      11680.701      10364.875    
ec    60700  60.7           0.001          1503.876      -2142.0825      99.333918      10450.197      10364.875    
ec    60800  60.8           0.001          1347.5107     -2143.5745      89.00569       8675.5018      10364.875    
ec    60900  60.9           0.001          1225.6508     -2147.0854      80.956605      7664.6349      10364.875    
ec    61000  61             0.001          999.84468     -2142.735       66.041675      6094.8014      10364.875    
ec    61100  61.1           0.001          961.46821     -2149.7073      63.506835      5079.5657      10364.875    
ec    61200  61.2           0.001          901.72261     -2153.5049      59.560522      4135.7583      10364.875    
ec    61300  61.3           0.001          919.66926     -2160.587       60.745933      3380.403       10364.875    
ec    61400  61.4           0.001          883.88343     -2162.5093      58.38221       2756.8246      10364.875    
ec    61500  61.5           0.001          875.64435     -2165.0287      57.838003      2500.3965      10364.875    
ec    61600  61.6           0.001          823.09244     -2164.0253      54.366847      2108.3463      10364.875    
ec    61700  61.7           0.001          812.61858     -2165.0509      53.675029      2101.8879      10364.875    
ec    61800  61.8           0.001          737.44749     -2161.7962      48.709833      1867.9237      10364.875    
ec    61900  61.9           0.001          764.69511     -2165.1852      50.509591      1741.0237      10364.875    
ec    62000  62             0.001          760.75996     -2165.8763      50.249666      1459.4086      10364.875    
ec    62100  62.1           0.001          786.05735     -2168.1647      51.920608      1491.1537      10364.875    
ec    62200  62.2           0.001          744.93381     -2165.9536      49.204319      1513.9382      10364.875    
ec    62300  62.3           0.001          724.82745     -2165.1357      47.876255      1477.7414      10364.875    
ec    62400  62.4           0.001          690.65964     -2163.0464      45.619405      1452.6052      10364.875    
ec    62500  62.5           0.001          684.12379     -2162.7384      45.187699      1661.6689      10364.875    
ec    62600  62.6           0.001          754.6466      -2167.7812      49.845868      1326.752       10364.875    
ec    62700  62.7           0.001          775.18949     -2169.049       51.202765      1393.6954      10364.875    
ec    62800  62.8           0.001          768.07542     -2168.7364      50.732867      1398.4276      10364.875    
ec    62900  62.9           0.001          753.34832     -2167.7664      49.760114      1392.3251      10364.875    
[...]
ec    74300  74.3           0.001          812.71107     -2182.0381      53.681138     -139.57349      10364.875    
ec    74400  74.4           0.001          811.57199     -2182.5192      53.6059       -174.96274      10364.875    
ec    74500  74.5           0.001          812.79654     -2183.1398      53.686783     -366.40628      10364.875    
ec    74600  74.6           0.001          748.4126      -2179.5717      49.4341       -214.29202      10364.875    
ec    74700  74.7           0.001          735.50177     -2179.1526      48.581314     -130.90037      10364.875    
ec    74800  74.8           0.001          748.29441     -2180.5277      49.426293     -375.69504      10364.875    
ec    74900  74.9           0.001          836.70917     -2186.721       55.266259     -579.33813      10364.875    
ec    75000  75             0.001          822.92936     -2185.9343      54.356076     -614.7032       10364.875    
ec    75100  75.1           0.001          881.5246      -2189.7164      58.226405     -725.44972      10364.875    
ec    75200  75.2           0.001          851.24233     -2187.5214      56.226202     -608.3857       10364.875    
ec    75300  75.3           0.001          812.15268     -2184.6906      53.644255     -530.26267      10364.875    
ec    75400  75.4           0.001          692.95642     -2176.3338      45.771112      17.248913      10364.875    
ec    75500  75.5           0.001          669.54291     -2174.3421      44.224604      159.59181      10364.875    
ec    75600  75.6           0.001          611.71618     -2170.0465      40.405037      384.38071      10364.875    
ec    75700  75.7           0.001          569.7771      -2166.9284      37.634879      574.666        10364.875    
ec    75800  75.8           0.001          554.64787     -2165.4806      36.635565      601.26441      10364.875    
ec    75900  75.9           0.001          575.12116     -2166.7242      37.987865      610.58823      10364.875    
ec    76000  76             0.001          556.41114     -2165.236       36.752032      653.12253      10364.875    
ec    76100  76.1           0.001          638.99619     -2170.6071      42.206934      406.72005      10364.875    
ec    76200  76.2           0.001          630.78071     -2169.6826      41.664286      455.00154      10364.875    
ec    76300  76.3           0.001          602.18408     -2167.302       39.775423      682.93154      10364.875    
ec    76400  76.4           0.001          574.59979     -2165.4125      37.953427      752.49055      10364.875    
ec    76500  76.5           0.001          518.3737      -2161.6374      34.239585      894.7352       10364.875    
ec    76600  76.6           0.001          515.43821     -2161.6082      34.045691      993.77347      10364.875    
ec    76700  76.7           0.001          509.17078     -2161.6767      33.631715      747.34485      10364.875    
ec    76800  76.8           0.001          581.76426     -2166.8934      38.426654      608.05427      10364.875    
ec    76900  76.9           0.001          597.45325     -2168.7754      39.462942      314.9475       10364.875    
ec    77000  77             0.001          610.78196     -2170.1077      40.34333       329.07222      10364.875    
ec    77100  77.1           0.001          639.16833     -2173.148       42.218304     -6.2360171      10364.875    
ec    77200  77.2           0.001          676.35793     -2175.9129      44.674749     -123.19368      10364.875    
ec    77300  77.3           0.001          640.39155     -2174.8133      42.2991       -310.48196      10364.875    
ec    77400  77.4           0.001          669.4056      -2177.1502      44.215534     -317.4183       10364.875    
ec    77500  77.5           0.001          645.10435     -2176.5151      42.61039      -668.41964      10364.875    
ec    77600  77.6           0.001          683.83876     -2179.0692      45.168873     -487.74894      10364.875    
ec    77700  77.7           0.001          580.15109     -2172.424       38.320102     -480.66132      10364.875    
ec    77800  77.8           0.001          637.14495     -2175.9845      42.084656     -334.35455      10364.875    
ec    77900  77.9           0.001          525.40043     -2168.4297      34.703714     -193.63094      10364.875    
ec    78000  78             0.001          644.15989     -2176.1174      42.548007     -314.9656       10364.875    
ec    78100  78.1           0.001          597.76485     -2172.4538      39.483525     -199.79288      10364.875    
ec    78200  78.2           0.001          662.3791      -2176.4418      43.751421     -217.5832       10364.875    
ec    78300  78.3           0.001          623.86476     -2173.4618      41.207474     -166.3488       10364.875    
ec    78400  78.4           0.001          664.20502     -2176.1329      43.872026     -203.03191      10364.875    
ec    78500  78.5           0.001          674.86432     -2176.4066      44.576094     -245.88273      10364.875    
ec    78600  78.6           0.001          720.65523     -2179.3532      47.600672     -298.06748      10364.875    
ec    78700  78.7           0.001          670.54272     -2175.6741      44.290644     -145.23258      10364.875    
ec    78800  78.8           0.001          694.97872     -2177.2978      45.904689     -128.22963      10364.875    
ec    78900  78.9           0.001          698.42533     -2177.1872      46.132344     -108.40757      10364.875    
ec    79000  79             0.001          657.33557     -2174.5715      43.418286     -93.531206      10364.875    
ec    79100  79.1           0.001          644.89587     -2173.706       42.596619      72.530594      10364.875    
ec    79200  79.2           0.001          620.46954     -2172.1274      40.983213      73.088598      10364.875    
ec    79300  79.3           0.001          712.80361     -2178.4393      47.082057     -215.95817      10364.875    
ec    79400  79.4           0.001          745.01481     -2180.4318      49.209669     -328.95732      10364.875    
ec    79500  79.5           0.001          820.87356     -2185.2477      54.220286     -482.61194      10364.875    
ec    79600  79.6           0.001          777.17717     -2182.2039      51.334055     -350.78569      10364.875    
ec    79700  79.7           0.001          780.71101     -2182.5398      51.567472     -321.78769      10364.875    
ec    79800  79.8           0.001          684.24717     -2176.4158      45.195849     -173.83612      10364.875    
ec    79900  79.9           0.001          681.65484     -2176.5837      45.02462      -116.32258      10364.875    
ec    80000  80             0.001          635.30007     -2173.905       41.962799     -131.59168      10364.875    
ec    80100  80.1           0.001          682.18791     -2177.2556      45.059831     -207.13595      10364.875    
ec    80200  80.2           0.001          605.15413     -2172.071       39.9716       -121.78152      10364.875    
ec    80300  80.3           0.001          609.98715     -2172.6601      40.290831     -49.458419      10364.875    
ec    80400  80.4           0.001          629.05258     -2173.8723      41.550139     -206.38868      10364.875    
ec    80500  80.5           0.001          693.57182     -2178.2351      45.81176      -380.68757      10364.875    
ec    80600  80.6           0.001          694.71859     -2177.8622      45.887506     -271.24429      10364.875    
ec    80700  80.7           0.001          681.22991     -2176.8813      44.996553     -249.10629      10364.875    
ec    80800  80.8           0.001          631.12616     -2173.3707      41.687104     -29.985612      10364.875    
ec    80900  80.9           0.001          616.26889     -2172.6303      40.705752     -41.758704      10364.875    
ec    81000  81             0.001          605.83187     -2171.8325      40.016367     -7.8266935      10364.875    
ec    81100  81.1           0.001          654.30707     -2175.158       43.218248     -223.7132       10364.875    
ec    81200  81.2           0.001          663.95593     -2175.6983      43.855573     -172.81054      10364.875    
ec    81300  81.3           0.001          674.51931     -2176.5158      44.553305     -252.74812      10364.875    
ec    81400  81.4           0.001          695.65937     -2177.6603      45.949647     -205.52594      10364.875    
ec    81500  81.5           0.001          641.1044      -2174.0657      42.346186     -124.59915      10364.875    
ec    81600  81.6           0.001          670.85114     -2175.872       44.311015     -113.14417      10364.875    
ec    81700  81.7           0.001          592.21967     -2170.6297      39.117254      50.885089      10364.875    
ec    81800  81.8           0.001          591.42306     -2170.4489      39.064637      98.916658      10364.875    
ec    81900  81.9           0.001          491.83543     -2164.2876      32.486681      208.95431      10364.875    
ec    82000  82             0.001          582.42676     -2170.5957      38.470414      11.577358      10364.875    
ec    82100  82.1           0.001          571.00432     -2170.2944      37.71594      -123.02817      10364.875    
ec    82200  82.2           0.001          721.97911     -2180.5312      47.688117     -532.85039      10364.875    
ec    82300  82.3           0.001          668.05268     -2177.2829      44.126172     -507.68182      10364.875    
ec    82400  82.4           0.001          698.56886     -2179.7802      46.141824     -593.40813      10364.875    
ec    82500  82.5           0.001          617.94421     -2175.0907      40.81641      -584.82816      10364.875    
ec    82600  82.6           0.001          651.44195     -2177.9928      43.029001     -633.40144      10364.875    
ec    82700  82.7           0.001          579.41786     -2173.7988      38.27167      -691.11995      10364.875    
ec    82800  82.8           0.001          591.5089      -2175.0875      39.070307     -555.98023      10364.875    
ec    82900  82.9           0.001          547.99917     -2172.4887      36.196405     -675.63724      10364.875    
ec    83000  83             0.001          596.29554     -2175.868       39.386473     -700.99579      10364.875    
ec    83100  83.1           0.001          565.40573     -2173.8533      37.346142     -791.9177       10364.875    
ec    83200  83.2           0.001          641.24833     -2178.991       42.355692     -862.81047      10364.875    
ec    83300  83.3           0.001          635.37208     -2178.2975      41.967555     -915.07642      10364.875    
ec    83400  83.4           0.001          655.38222     -2179.5721      43.289263     -921.96676      10364.875    
ec    83500  83.5           0.001          602.053       -2175.4977      39.766765     -682.17251      10364.875    
ec    83600  83.6           0.001          620.08164     -2176.5749      40.957591     -685.43496      10364.875    
ec    83700  83.7           0.001          597.05178     -2174.6932      39.436425     -632.40533      10364.875    
ec    83800  83.8           0.001          647.31874     -2178.0543      42.756655     -720.48368      10364.875    
ec    83900  83.9           0.001          708.0597      -2181.7441      46.768713     -914.78794      10364.875    
ec    84000  84             0.001          770.89334     -2185.8148      50.918996     -1094.4867      10364.875    
ec    84100  84.1           0.001          809.67846     -2188.1066      53.480828     -1156.9211      10364.875    
ec    84200  84.2           0.001          812.83946     -2188.261       53.689618     -1070.5529      10364.875    
ec    84300  84.3           0.001          849.4704      -2190.5786      56.109163     -1167.8943      10364.875    
ec    84400  84.4           0.001          854.30125     -2190.9897      56.42825      -1165.5016      10364.875    
ec    84500  84.5           0.001          881.62571     -2192.7847      58.233084     -1226.1931      10364.875    
ec    84600  84.6           0.001          878.48934     -2192.5328      58.02592      -1321.1675      10364.875    
ec    84700  84.7           0.001          862.87885     -2191.3972      56.994817     -1112.6302      10364.875    
ec    84800  84.8           0.001          826.62968     -2188.9033      54.600489     -1086.8545      10364.875    
ec    84900  84.9           0.001          766.22028     -2184.7561      50.610332     -864.5038       10364.875    
ec    85000  85             0.001          732.65684     -2182.3368      48.393401     -769.75685      10364.875    
ec    85100  85.1           0.001          720.5248      -2181.4422      47.592056     -644.00938      10364.875    
ec    85200  85.2           0.001          701.62001     -2179.9118      46.343358     -639.44985      10364.875    
ec    85300  85.3           0.001          693.35852     -2179.191       45.797671     -537.69184      10364.875    
ec    85400  85.4           0.001          626.89273     -2174.3985      41.407477     -356.63954      10364.875    
ec    85500  85.5           0.001          611.19113     -2173.3317      40.370356     -267.23057      10364.875    
ec    85600  85.6           0.001          558.94614     -2169.7458      36.919474     -55.576438      10364.875    
ec    85700  85.7           0.001          572.26438     -2170.6982      37.799169     -177.89261      10364.875    
ec    85800  85.8           0.001          558.65312     -2169.7611      36.900119     -99.131877      10364.875    
ec    85900  85.9           0.001          536.75211     -2168.3837      35.453515     -47.480633      10364.875    
ec    86000  86             0.001          549.79377     -2169.4264      36.314942     -116.43479      10364.875    
ec    86100  86.1           0.001          544.99558     -2169.1818      35.998012     -154.55453      10364.875    
ec    86200  86.2           0.001          606.18935     -2173.6016      40.039979     -363.38469      10364.875    
ec    86300  86.3           0.001          613.17087     -2174.1852      40.501122     -449.92388      10364.875    
ec    86400  86.4           0.001          653.60353     -2177.6107      43.171778     -667.08305      10364.875    
ec    86500  86.5           0.001          669.23009     -2178.9327      44.203942     -733.2448       10364.875    
ec    86600  86.6           0.001          671.06502     -2179.6925      44.325142     -898.35698      10364.875    
ec    86700  86.7           0.001          674.28226     -2180.263       44.537647     -907.56288      10364.875    
ec    86800  86.8           0.001          622.69509     -2177.3314      41.130215     -801.04753      10364.875    
ec    86900  86.9           0.001          649.83211     -2179.2766      42.922667     -923.45703      10364.875    
ec    87000  87             0.001          571.23933     -2174.5466      37.731462     -800.62885      10364.875    
ec    87100  87.1           0.001          598.61759     -2176.462       39.53985      -790.86705      10364.875    
ec    87200  87.2           0.001          573.81813     -2175.1117      37.901797     -898.20172      10364.875    
ec    87300  87.3           0.001          569.65734     -2174.6386      37.626969     -678.04164      10364.875    
ec    87400  87.4           0.001          512.91393     -2170.8929      33.878957     -627.94552      10364.875    
ec    87500  87.5           0.001          524.65734     -2171.3579      34.654632     -557.21322      10364.875    
ec    87600  87.6           0.001          475.94498     -2167.8696      31.437086     -365.96272      10364.875    
ec    87700  87.7           0.001          529.25332     -2170.987       34.958205     -486.64135      10364.875    
ec    87800  87.8           0.001          497.46926     -2168.6257      32.858807     -336.26531      10364.875    
ec    87900  87.9           0.001          525.24595     -2170.1961      34.693511     -456.04758      10364.875    
ec    88000  88             0.001          490.6144      -2168.1323      32.40603      -272.9558       10364.875    
ec    88100  88.1           0.001          520.66415     -2170.3456      34.390874     -436.15088      10364.875    
ec    88200  88.2           0.001          515.91681     -2170.4603      34.077303     -552.94655      10364.875    
ec    88300  88.3           0.001          551.38527     -2173.1872      36.420064     -655.12458      10364.875    
ec    88400  88.4           0.001          494.97285     -2169.5933      32.693914     -514.46293      10364.875    
ec    88500  88.5           0.001          497.82321     -2170.3815      32.882186     -731.0207       10364.875    
ec    88600  88.6           0.001          459.81389     -2168.0578      30.371597     -604.02156      10364.875    
ec    88700  88.7           0.001          509.63474     -2171.7262      33.662361     -751.85839      10364.875    
ec    88800  88.8           0.001          453.47476     -2168.2382      29.952885     -758.26263      10364.875    
ec    88900  88.9           0.001          484.61709     -2170.3992      32.009896     -747.76137      10364.875    
ec    89000  89             0.001          509.95974     -2172.1304      33.683827     -892.27316      10364.875    
ec    89100  89.1           0.001          540.39596     -2174.3712      35.694198     -1025.8841      10364.875    
ec    89200  89.2           0.001          625.15916     -2179.7112      41.292972     -1070.0687      10364.875    
ec    89300  89.3           0.001          522.14934     -2172.5231      34.488974     -892.47239      10364.875    
ec    89400  89.4           0.001          537.89207     -2173.5874      35.528812     -762.24426      10364.875    
ec    89500  89.5           0.001          539.90717     -2173.6247      35.661913     -781.59046      10364.875    
ec    89600  89.6           0.001          542.97389     -2173.664       35.864475     -744.68663      10364.875    
ec    89700  89.7           0.001          579.81948     -2175.8377      38.298198     -826.0907       10364.875    
ec    89800  89.8           0.001          605.05389     -2177.2097      39.964979     -839.32671      10364.875    
ec    89900  89.9           0.001          584.02762     -2175.5742      38.576154     -684.9872       10364.875    
Fix halt condition for fix-id myhalt met on step 90000 with value 90 (../fix_halt.cpp:240)
ec    90000  90             0.001          608.28039     -2176.7856      40.178096     -750.22861      10364.875    
Loop time of 3.55292 on 4 procs for 30000 steps with 512 atoms

Performance: 729.541 ns/day, 0.033 hours/ns, 8443.760 timesteps/s, 4.323 Matom-step/s
95.6% CPU use with 4 MPI tasks x no OpenMP threads

MPI task timing breakdown:
Section |  min time  |  avg time  |  max time  |%varavg| %total
---------------------------------------------------------------
Pair    | 2.4296     | 2.5333     | 2.6601     |   5.4 | 71.30
Neigh   | 0          | 0          | 0          |   0.0 |  0.00
Comm    | 0.70154    | 0.82622    | 0.92839    |   9.3 | 23.25
Output  | 0.004681   | 0.0065325  | 0.01196    |   3.9 |  0.18
Modify  | 0.1201     | 0.12062    | 0.12105    |   0.1 |  3.40
Other   |            | 0.06622    |            |       |  1.86

Nlocal:            128 ave         134 max         123 min
Histogram: 1 0 1 0 0 1 0 0 0 1
Nghost:            783 ave         788 max         777 min
Histogram: 1 0 0 0 1 0 0 1 0 1
Neighs:              0 ave           0 max           0 min
Histogram: 4 0 0 0 0 0 0 0 0 0
FullNghs:       4370.5 ave        4574 max        4194 min
Histogram: 1 0 0 1 0 1 0 0 0 1

Total # of neighbors = 17482
Ave neighs/atom = 34.144531
Neighbor list builds = 0
Dangerous builds = 0

write_data cell.data_${temp}
write_data cell.data_400
System init for write_data ...
WARNING: One or more atoms are time integrated more than once (../modify.cpp:296)
Total wall time: 0:00:12
