
units metal
timestep 0.001
boundary p p p

lattice         diamond 5.43
Lattice spacing in x,y,z = 5.43 5.43 5.43
region          box block 0 ${N} 0 ${N} 0 ${N}
region          box block 0 6 0 ${N} 0 ${N}
region          box block 0 6 0 6 0 ${N}
region          box block 0 6 0 6 0 6
create_box      1 box
Created orthogonal box = (0 0 0) to (32.58 32.58 32.58)
  1 by 2 by 2 MPI processor grid
create_atoms    1 box
Created 1728 atoms
  using lattice units in orthogonal box = (0 0 0) to (32.58 32.58 32.58)
  create_atoms CPU = 0.000 seconds

timestep ${dt}
timestep 1e-3

mass 1 28.0855
labelmap atom 1 Si

pair_style sw
pair_coeff * * Si.sw Si
Reading sw potential file Si.sw with DATE: 2007-06-11

min_style cg
minimize 1.0e-7 1.0e-8 100 1000

CITE-CITE-CITE-CITE-CITE-CITE-CITE-CITE-CITE-CITE-CITE-CITE-CITE

Your simulation uses code contributions which should be cited:

- Type Label Framework: https://doi.org/10.1021/acs.jpcb.3c08419

@Article{Gissinger24,
 author = {Jacob R. Gissinger, Ilia Nikiforov, Yaser Afshar, Brendon Waters, Moon-ki Choi, Daniel S. Karls, Alexander Stukowski, Wonpil Im, Hendrik Heinz, Axel Kohlmeyer, and Ellad B. Tadmor},
 title = {Type Label Framework for Bonded Force Fields in LAMMPS},
 journal = {J. Phys. Chem. B},
 year =    2024,
 volume =  128,
 number =  13,
 pages =   {3282--3297}
}

CITE-CITE-CITE-CITE-CITE-CITE-CITE-CITE-CITE-CITE-CITE-CITE-CITE

Neighbor list info ...
  update: every = 1 steps, delay = 0 steps, check = yes
  max neighbors/atom: 2000, page size: 100000
  master list distance cutoff = 5.77118
  ghost atom cutoff = 5.77118
  binsize = 2.88559, bins = 12 12 12
  1 neighbor lists, perpetual/occasional/extra = 1 0 0
  (1) pair sw, perpetual
      attributes: full, newton on
      pair build: full/bin/atomonly
      stencil: full/bin/3d
      bin: standard
Per MPI rank memory allocation (min/avg/max) = 4.374 | 4.374 | 4.374 Mbytes
   Step          Temp          E_pair         E_mol          TotEng         Press     
         0   0             -7493.6418      0             -7493.6418      532.56802    
         1   0             -7493.6418      0             -7493.6418      532.56802    
Loop time of 0.00113408 on 4 procs for 1 steps with 1728 atoms

91.5% CPU use with 4 MPI tasks x no OpenMP threads

Minimization stats:
  Stopping criterion = energy tolerance
  Energy initial, next-to-last, final = 
     -7493.64178436249  -7493.64178436249  -7493.64178436249
  Force two-norm initial, final = 1.215238e-12 1.19896e-12
  Force max component initial, final = 3.3497118e-14 3.900439e-14
  Final line search alpha, max atom move = 1 3.900439e-14
  Iterations, force evaluations = 1 2

MPI task timing breakdown:
Section |  min time  |  avg time  |  max time  |%varavg| %total
---------------------------------------------------------------
Pair    | 0.00060771 | 0.0007932  | 0.00097344 |   0.0 | 69.94
Neigh   | 0          | 0          | 0          |   0.0 |  0.00
Comm    | 0.00010794 | 0.00028875 | 0.00047493 |   0.0 | 25.46
Output  | 0          | 0          | 0          |   0.0 |  0.00
Modify  | 0          | 0          | 0          |   0.0 |  0.00
Other   |            | 5.213e-05  |            |       |  4.60

Nlocal:            432 ave         432 max         432 min
Histogram: 4 0 0 0 0 0 0 0 0 0
Nghost:           1397 ave        1397 max        1397 min
Histogram: 4 0 0 0 0 0 0 0 0 0
Neighs:              0 ave           0 max           0 min
Histogram: 4 0 0 0 0 0 0 0 0 0
FullNghs:        14688 ave       14688 max       14688 min
Histogram: 4 0 0 0 0 0 0 0 0 0

Total # of neighbors = 58752
Ave neighs/atom = 34
Neighbor list builds = 0
Dangerous builds = 0

velocity all create ${temp} 4928459 mom yes rot yes dist gaussian
velocity all create 400 4928459 mom yes rot yes dist gaussian

variable t equal time

compute 1 all vacf

thermo 100
thermo_style	custom step time dt temp pe ke press vol c_1[4]
thermo_modify	line one flush yes format 1 "ec %8lu" flush yes

fix myhalt all halt 100 v_t >= 30.0 error continue

fix NPT all npt temp ${temp} ${temp} ${tau_T} iso 0.0 0.0 1.0
fix NPT all npt temp 400 ${temp} ${tau_T} iso 0.0 0.0 1.0
fix NPT all npt temp 400 400 ${tau_T} iso 0.0 0.0 1.0
fix NPT all npt temp 400 400 0.1 iso 0.0 0.0 1.0
run 10000000
Per MPI rank memory allocation (min/avg/max) = 3.624 | 3.624 | 3.624 Mbytes
   Step          Time            Dt            Temp          PotEng         KinEng         Press          Volume         c_1[4]    
ec        1  0              0.001          400           -7493.6418      89.292908      3290.4954      34582.25       35.504417    
ec      100  0.099          0.001          227.9933      -7447.6222      50.895461     -2357.2287      34778.778     -16.319232    
ec      200  0.199          0.001          197.15408     -7428.2676      44.011153      2661.9517      34619.291      0.82585962   
ec      300  0.299          0.001          265.37026     -7428.6992      59.239206     -2099.6588      34790.593      9.4524214    
ec      400  0.399          0.001          332.50448     -7427.1972      74.225731      1633.4721      34671.877     -8.5234248    
ec      500  0.499          0.001          354.20681     -7415.3203      79.070391     -1730.0833      34804.288      0.43026686   
ec      600  0.599          0.001          387.09869     -7407.4082      86.412919      1107.7563      34718.87      -1.4021935    
ec      700  0.699          0.001          386.73032     -7395.9987      86.330688     -1194.4163      34809.285      0.32037785   
ec      800  0.799          0.001          399.68256     -7393.9289      89.222046      179.52774      34763.157      3.4154058    
ec      900  0.899          0.001          429.20258     -7403.7164      95.811865     -241.97497      34781.343      2.7822492    
ec     1000  0.999          0.001          378.52542     -7400.4017      84.499088     -119.80635      34772.723      0.67134247   
ec     1100  1.099          0.001          396.54608     -7408.7828      88.521882      551.4254       34749.23       1.7778768    
ec     1200  1.199          0.001          413.57248     -7411.1468      92.322723     -511.56346      34782.135      0.80814032   
ec     1300  1.299          0.001          397.80156     -7402.2094      88.802144      808.06048      34744.668     -1.5382611    
ec     1400  1.399          0.001          440.53604     -7406.3473      98.341861     -272.56463      34798.626     -2.6369299    
ec     1500  1.499          0.001          417.11036     -7401.8459      93.112492      1626.5224      34732.856      3.6210812    
ec     1600  1.599          0.001          405.71136     -7403.9235      90.567867     -1005.7         34810.291     -2.5746055    
ec     1700  1.699          0.001          376.0043      -7401.7059      83.936294      1259.7879      34719.407      1.5742549    
ec     1800  1.799          0.001          351.17011     -7397.0922      78.3925       -1746.4586      34817.346      1.8126547    
ec     1900  1.899          0.001          404.0886      -7405.3013      90.205616      1241.5512      34723.863      2.5182318    
ec     2000  1.999          0.001          393.48717     -7398.5374      87.839034     -1101.9308      34810.472     -2.1241144    
ec     2100  2.099          0.001          394.78276     -7397.4069      88.128252      590.84281      34748.468     -1.3889112    
ec     2200  2.199          0.001          407.9375      -7403.3565      91.064813     -806.77579      34792.495      1.3103527    
ec     2300  2.299          0.001          347.31152     -7393.6975      77.53114       363.5849       34751.74      -2.9308279    
ec     2400  2.399          0.001          383.63346     -7403.5749      85.639367     -328.78097      34777.781      3.0495848    
ec     2500  2.499          0.001          421.97286     -7410.3167      94.19796       153.88922      34759.362     -0.82360084   
ec     2600  2.599          0.001          423.52649     -7406.6578      94.544781      301.78651      34766.012     -0.18283621   
ec     2700  2.699          0.001          384.46797     -7395.7342      85.825657     -258.08377      34780.908      2.733236     
ec     2800  2.799          0.001          412.78063     -7403.3273      92.145958      243.65464      34760.029      3.9984068    
ec     2900  2.899          0.001          390.52582     -7401.7671      87.177965     -136.2924       34774.337     -2.9940575    
ec     3000  2.999          0.001          391.04632     -7404.1039      87.294157      374.00046      34758.034      0.87104886   
ec     3100  3.099          0.001          438.41056     -7414.3592      97.867384     -130.22264      34771.183     -0.48201897   
ec     3200  3.199          0.001          411.70158     -7405.5699      91.905079      284.67775      34758.071      0.37079055   
ec     3300  3.299          0.001          415.74683     -7403.6834      92.808108     -402.12112      34781.749     -1.8349033    
ec     3400  3.399          0.001          386.3916      -7397.1665      86.255073      243.46529      34762.871     -2.0235065    
ec     3500  3.499          0.001          386.3394      -7399.5178      86.243421     -171.21571      34778.46       6.5223856    
ec     3600  3.599          0.001          408.40212     -7407.283       91.168532      373.77257      34754.383     -4.3567383    
ec     3700  3.699          0.001          407.77941     -7407.6171      91.029523     -236.0648       34776.902      0.32978965   
ec     3800  3.799          0.001          416.32701     -7407.4767      92.937623      805.67376      34746.542      1.0558283    
ec     3900  3.899          0.001          414.86586     -7404.5923      92.611449     -402.16104      34789.447     -0.82587095   
ec     4000  3.999          0.001          380.75898     -7395.9756      84.997692      681.60083      34749.762     -1.6839415    
ec     4100  4.099          0.001          417.94538     -7405.44        93.298897     -417.51398      34788.21       3.8903471    
ec     4200  4.199          0.001          417.59312     -7408.4237      93.22026       243.05769      34752.073     -1.8537791    
ec     4300  4.299          0.001          409.54368     -7407.6954      91.423366     -283.7513       34777.252     -0.68869336   
ec     4400  4.399          0.001          386.96479     -7401.5722      86.383028      339.34871      34754.797      1.5727549    
ec     4500  4.499          0.001          396.18044     -7401.3491      88.44026      -410.57986      34780.349      1.2828565    
ec     4600  4.599          0.001          381.21282     -7396.2069      85.099003      331.02182      34762.398     -6.0402998    
ec     4700  4.699          0.001          413.49331     -7403.9478      92.305051     -175.41438      34770.781      3.8873337    
ec     4800  4.799          0.001          356.80724     -7394.9295      79.65089      -656.48643      34780.607     -1.7399185    
ec     4900  4.899          0.001          377.30031     -7400.2275      84.225605      887.51123      34744.799     -1.6470439    
ec     5000  4.999          0.001          397.14384     -7403.5427      88.65532      -579.35242      34788.757      3.7184683    
ec     5100  5.099          0.001          436.11368     -7409.2192      97.354646      764.81498      34747.833     -3.2125307    
ec     5200  5.199          0.001          409.62594     -7401.0986      91.441729     -164.01138      34783.646      2.1168362    
ec     5300  5.299          0.001          407.36359     -7395.9486      90.936698      548.01524      34758.918      0.5449263    
ec     5400  5.399          0.001          413.60629     -7399.3738      92.330271     -501.27466      34794.788     -2.7861659    
ec     5500  5.499          0.001          401.02833     -7400.5756      89.522464      686.17083      34745.169      0.8907155    
ec     5600  5.599          0.001          403.23842     -7403.8294      90.015828     -883.5988       34794.338      1.1880223    
ec     5700  5.699          0.001          380.7909      -7400.7906      85.004818      738.64148      34742.49      -2.1743942    
ec     5800  5.799          0.001          387.07821     -7402.6695      86.408349     -456.51743      34783.22      -1.0085448    
ec     5900  5.899          0.001          381.8455      -7398.6196      85.240237      302.19264      34752.782      2.5042978    
ec     6000  5.999          0.001          419.8964      -7403.9065      93.734426     -357.30161      34787.134     -0.52386486   
ec     6100  6.099          0.001          411.89475     -7403.0874      91.9482        542.86287      34752.896     -4.3889011    
ec     6200  6.199          0.001          381.11829     -7399.0194      85.0779       -662.50385      34786.407      4.945522     
ec     6300  6.299          0.001          393.21169     -7402.3562      87.777539      509.46726      34749.992     -4.0205587    
ec     6400  6.399          0.001          409.28297     -7405.9393      91.365167     -344.27639      34775.308      1.531631     
ec     6500  6.499          0.001          422.41913     -7407.7041      94.297582      232.12607      34767.691     -1.9069356    
ec     6600  6.599          0.001          403.91395     -7403.1371      90.166629      516.19055      34751.689      1.0210779    
ec     6700  6.699          0.001          408.58207     -7400.9172      91.208703     -987.79815      34799.836      0.46628804   
ec     6800  6.799          0.001          426.64047     -7402.5629      95.239922      1205.9416      34734.788     -1.2627938    
ec     6900  6.899          0.001          404.92009     -7401.6039      90.391232     -1092.2466      34810.379     -0.73170542   
ec     7000  6.999          0.001          411.21141     -7405.1635      91.795657      1572.4858      34716.679     -1.3900139    
ec     7100  7.099          0.001          423.59261     -7408.9762      94.55954      -1250.0835      34817.115     -1.5431127    
ec     7200  7.199          0.001          395.08077     -7403.4636      88.194776      1712.1544      34705.5        0.54569355   
ec     7300  7.299          0.001          410.4221      -7405.564       91.619457     -1747.9202      34826.437     -3.3863557    
ec     7400  7.399          0.001          418.39237     -7403.3302      93.398678      1746.2554      34711.09       1.6214228    
ec     7500  7.499          0.001          432.75147     -7406.9396      96.604094     -1375.3422      34818.908     -1.2928951    
ec     7600  7.599          0.001          407.94231     -7405.092       91.065888      1201.2375      34722.657      1.9113701    
ec     7700  7.699          0.001          382.15665     -7400.5143      85.309697     -1013.3182      34803.89      -3.1215112    
ec     7800  7.799          0.001          373.33512     -7398.7362      83.340446      712.40603      34732.917      2.4422321    
ec     7900  7.899          0.001          389.38161     -7400.9366      86.922541     -1186.7786      34797.375     -0.029035717  
ec     8000  7.999          0.001          423.13899     -7406.8483      94.458276      824.73679      34742.862     -3.3227399    
ec     8100  8.099          0.001          373.89773     -7396.8043      83.466039     -589.4075       34785.547     -0.71181806   
ec     8200  8.199          0.001          380.52945     -7403.4444      84.946454      80.324878      34753.582      1.8269609    
ec     8300  8.299          0.001          370.06239     -7401.3099      82.609867     -441.31455      34767.702     -2.037532     
ec     8400  8.399          0.001          402.2854      -7404.4901      89.803083     -302.10675      34773.875      2.4275724    
ec     8500  8.499          0.001          406.09328     -7403.1137      90.653124      633.73247      34747.304     -1.5810113    
ec     8600  8.599          0.001          420.707       -7405.443       93.915379     -795.22284      34801.339      1.518936     
ec     8700  8.699          0.001          416.15122     -7406.1763      92.898382      1676.8158      34716.844     -1.8884369    
ec     8800  8.799          0.001          388.61716     -7404.5058      86.75189      -1444.7496      34817.526     -1.4149999    
ec     8900  8.899          0.001          382.2254      -7403.1411      85.325044      1843.379       34701.59       0.40360431   
ec     9000  8.999          0.001          398.9279      -7404.7058      89.053581     -1739.3848      34827.372     -0.72819614   
ec     9100  9.099          0.001          391.63176     -7401.4638      87.424847      1985.5455      34701.52       3.326363     
ec     9200  9.199          0.001          404.64653     -7403.8088      90.330163     -1997.6882      34837.655     -3.8667495    
ec     9300  9.299          0.001          389.85824     -7399.9546      87.02894       1855.8682      34699.999      1.8141882    
ec     9400  9.399          0.001          387.55655     -7398.9831      86.515128     -1939.0763      34830.624      1.4248101    
ec     9500  9.499          0.001          405.12806     -7402.9039      90.437656      1488.5378      34716.878      0.88828386   
ec     9600  9.599          0.001          416.69789     -7407.4344      93.020417     -1221.1752      34808.682     -5.2864456    
ec     9700  9.699          0.001          375.62179     -7400.5942      83.850905      680.94597      34733.388      0.84485718   
ec     9800  9.799          0.001          383.15356     -7401.407       85.53224      -949.12858      34793.837     -2.0619952    
ec     9900  9.899          0.001          398.095       -7400.4494      88.867651      461.16867      34751.371     -0.28599019   
ec    10000  9.999          0.001          425.68386     -7404.4522      95.026375     -90.361386      34779.403     -0.77021468   
ec    10100  10.099         0.001          424.64036     -7406.1439      94.793431      618.91975      34760.812     -0.26106078   
ec    10200  10.199         0.001          409.30694     -7405.1874      91.370517      637.96805      34754.332      3.6081823    
ec    10300  10.299         0.001          410.06217     -7405.8624      91.539108     -350.08586      34783.552     -3.4167516    
ec    10400  10.399         0.001          402.60934     -7404.0925      89.875396      993.3223       34732.179      0.94928175   
ec    10500  10.499         0.001          413.5384      -7404.7732      92.315117     -1379.2545      34813.289     -1.1839661    
ec    10600  10.599         0.001          430.96066     -7404.4194      96.204326      1827.0488      34713.093     -0.70418032   
ec    10700  10.699         0.001          430.02587     -7404.7157      95.99565      -1586.0978      34832.816     -0.28135515   
ec    10800  10.799         0.001          397.57783     -7401.6132      88.752201      1910.7492      34698.694     -0.943459     
ec    10900  10.899         0.001          408.27697     -7405.1701      91.140596     -2098.7018      34840.565      0.91311913   
ec    11000  10.999         0.001          395.12587     -7403.0342      88.204845      2224.2545      34686.34      -1.1715695    
ec    11100  11.099         0.001          378.28107     -7399.1493      84.444543     -2558.5976      34851.444     -0.41216202   
ec    11200  11.199         0.001          413.97635     -7404.1032      92.412881      2481.1025      34685.951     -0.54301486   
ec    11300  11.299         0.001          386.12082     -7396.2444      86.194627     -2533.0924      34850.135      1.8024611    
ec    11400  11.399         0.001          396.53361     -7399.7407      88.519099      1738.1997      34706.161     -2.3141022    
ec    11500  11.499         0.001          405.90277     -7405.6476      90.610597     -1377.9448      34815.523     -2.21303      
ec    11600  11.599         0.001          414.95988     -7408.2827      92.632436      1512.56        34720.903     -0.44679551   
ec    11700  11.699         0.001          420.07924     -7408.2302      93.775243     -490.23248      34790.959      2.5319339    
ec    11800  11.799         0.001          411.16793     -7404.4982      91.78595       646.03085      34748.819     -2.0513993    
ec    11900  11.899         0.001          396.51791     -7400.9244      88.515593     -309.49311      34777.244      1.3884997    
ec    12000  11.999         0.001          382.23104     -7399.1298      85.326304     -271.00401      34774.314      0.35577861   
ec    12100  12.099         0.001          395.29086     -7407.8136      88.241676      620.92909      34743.222     -0.97520278   
ec    12200  12.199         0.001          377.0847      -7403.6382      84.177475     -947.3592       34791.703      1.1189557    
ec    12300  12.299         0.001          381.698       -7400.552       85.20731       1150.1282      34726.179     -0.69534851   
ec    12400  12.399         0.001          395.16448     -7401.0944      88.213464     -1335.0596      34811.47      -1.8416949    
ec    12500  12.499         0.001          400.45676     -7401.391       89.394872      1227.0653      34723.884      0.25394005   
ec    12600  12.599         0.001          400.72063     -7402.8429      89.453777     -1406.5612      34815.19      -0.11376004   
ec    12700  12.699         0.001          393.89457     -7405.2066      87.929979      1561.7954      34711.41      -0.66135198   
ec    12800  12.799         0.001          396.1909      -7406.6969      88.442595     -1482.2906      34815.808      0.039511351  
ec    12900  12.899         0.001          400.92934     -7404.1775      89.500368      1593.6032      34708.457     -0.77421634   
ec    13000  12.999         0.001          403.27654     -7402.35        90.024338     -1536.2454      34822.412      2.2191958    
ec    13100  13.099         0.001          416.01895     -7405.6048      92.868854      1818.2498      34709.458     -2.2508933    
ec    13200  13.199         0.001          389.23867     -7401.3193      86.890632     -1363.5971      34814.939     -0.12599859   
ec    13300  13.299         0.001          393.21506     -7403.4978      87.77829       1277.6537      34718.564      0.69424176   
ec    13400  13.399         0.001          391.07484     -7403.7497      87.300524     -1343.6273      34803.221     -0.69612975   
ec    13500  13.499         0.001          391.75251     -7401.0623      87.451803      697.2946       34739.524      0.028557213  
ec    13600  13.599         0.001          401.13281     -7399.8976      89.545789     -532.75067      34786.854      1.7722537    
ec    13700  13.699         0.001          421.78149     -7405.0537      94.155239      249.18032      34760.229     -1.3275675    
ec    13800  13.799         0.001          412.13733     -7405.7071      92.002352      262.80522      34761.088      0.10714122   
ec    13900  13.899         0.001          410.51311     -7406.2994      91.639773     -16.737035      34772.177     -0.0039103069 
ec    14000  13.999         0.001          411.06412     -7406.3456      91.762777      580.09012      34746.538      0.35308393   
ec    14100  14.099         0.001          402.28154     -7403.1793      89.802221     -595.14646      34787.872     -2.0595447    
ec    14200  14.199         0.001          410.94875     -7402.6708      91.737022      1028.9968      34738.622      2.8419091    
ec    14300  14.299         0.001          406.64943     -7401.0568      90.777276     -842.73562      34796.5       -1.2376262    
ec    14400  14.399         0.001          404.03759     -7402.7622      90.194227      735.04413      34740.004      0.60214636   
ec    14500  14.499         0.001          401.61124     -7405.2244      89.65259      -383.29155      34781.953      0.59497717   
ec    14600  14.599         0.001          403.59258     -7406.8764      90.094887      498.53505      34745.338      1.8456905    
ec    14700  14.699         0.001          406.00477     -7404.8404      90.633367     -338.58858      34779.761     -0.7634642    
ec    14800  14.799         0.001          418.09106     -7404.155       93.331418      564.71453      34749.706      1.2620118    
ec    14900  14.899         0.001          391.81868     -7398.9117      87.466573     -755.13538      34790.573     -1.9556982    
ec    15000  14.999         0.001          400.34232     -7402.1492      89.369326      626.1662       34743.756      2.8863535    
ec    15100  15.099         0.001          394.35715     -7402.4133      88.033242     -856.7237       34791.767     -1.5813492    
ec    15200  15.199         0.001          401.20256     -7405.024       89.561358      705.39671      34741.807      0.75146585   
ec    15300  15.299         0.001          386.8533      -7404.531       86.358139     -359.66446      34778.756      0.21814796   
ec    15400  15.399         0.001          374.88173     -7403.3158      83.6857        464.62088      34746.094     -0.17013939   
ec    15500  15.499         0.001          403.49767     -7405.898       90.073701     -316.34738      34773.466      1.1815153    
ec    15600  15.599         0.001          410.79755     -7404.6211      91.70327       359.57069      34758.647     -1.7475042    
ec    15700  15.699         0.001          398.13205     -7401.3445      88.875921     -155.65451      34772.467      2.6283709    
ec    15800  15.799         0.001          401.32854     -7402.593       89.589481      136.91572      34766.164     -1.9949592    
ec    15900  15.899         0.001          409.50675     -7407.5         91.415121      422.02083      34751.362     -0.73963625   
ec    16000  15.999         0.001          390.20239     -7405.9846      87.105765     -553.77567      34780.132      1.4166841    
ec    16100  16.099         0.001          413.15563     -7408.5831      92.22967       1018.3732      34737.542      2.2786898    
ec    16200  16.199         0.001          402.27711     -7401.9952      89.801233     -746.76707      34788.286     -2.2942936    
ec    16300  16.299         0.001          395.62042     -7400.8183      88.315245      290.81434      34752.493      2.5496368    
ec    16400  16.399         0.001          399.24345     -7402.9698      89.124021     -425.44557      34778.286     -1.5189999    
ec    16500  16.499         0.001          368.56919     -7398.616       82.276538      142.95667      34752.401      2.0284034    
ec    16600  16.599         0.001          380.72852     -7401.8303      84.990893     -578.21858      34780.991     -1.9980055    
ec    16700  16.699         0.001          410.05372     -7406.4431      91.537222      745.22509      34743.053      0.6012045    
ec    16800  16.799         0.001          421.17809     -7404.9807      94.020541     -356.71688      34783.057      0.39466769   
ec    16900  16.899         0.001          406.57352     -7401.6279      90.76033       274.06445      34756.32       1.0785268    
ec    17000  16.999         0.001          410.68851     -7405.3387      91.678929     -246.07387      34776.176     -0.063124923  
ec    17100  17.099         0.001          396.52213     -7404.3551      88.516534      349.47505      34750.838     -1.0434445    
ec    17200  17.199         0.001          402.27304     -7405.324       89.800324     -264.62765      34778.541      2.5162271    
ec    17300  17.299         0.001          393.38679     -7402.4117      87.816625      500.28603      34749.866     -2.2420153    
ec    17400  17.399         0.001          399.90084     -7402.9186      89.270772     -328.19186      34776.312      2.6081416    
ec    17500  17.499         0.001          412.56241     -7404.3891      92.097243      380.45558      34757.24      -1.7087127    
ec    17600  17.599         0.001          418.22328     -7406.2992      93.360932     -64.519459      34770.024      0.88782046   
ec    17700  17.699         0.001          401.02984     -7405.7541      89.522802      178.33113      34762.716      1.33649      
ec    17800  17.799         0.001          400.23401     -7406.5675      89.345146      366.23681      34754.863     -1.2869327    
ec    17900  17.899         0.001          401.66436     -7404.8198      89.664447     -357.50346      34776.106      2.6484209    
ec    18000  17.999         0.001          413.6836      -7403.7702      92.347529      550.12807      34752.354     -0.22671965   
ec    18100  18.099         0.001          409.51748     -7402.9657      91.417518     -388.23106      34781.424     -0.21933951   
ec    18200  18.199         0.001          410.06758     -7404.8082      91.540317      538.14058      34748.845     -0.74309007   
ec    18300  18.299         0.001          395.51407     -7404.1037      88.291505     -702.6441       34784.493      0.92860049   
ec    18400  18.399         0.001          366.02299     -7399.7801      81.708142      267.76168      34745.471      0.38285019   
ec    18500  18.499         0.001          364.41666     -7402.7622      81.349558     -881.7215       34781.043     -0.095764635  
ec    18600  18.599         0.001          388.20874     -7405.4004      86.660719      534.74788      34740.563     -0.18925996   
ec    18700  18.699         0.001          410.01341     -7406.4776      91.528225     -427.62812      34781.437      1.27373      
ec    18800  18.799         0.001          400.9827      -7402.6942      89.512279      421.72593      34747.84      -1.2546399    
ec    18900  18.899         0.001          405.50556     -7401.9408      90.521927     -283.32089      34781.09       1.5490314    
ec    19000  18.999         0.001          412.67607     -7404.4269      92.122617      449.41275      34751.651     -0.081536727  
ec    19100  19.099         0.001          399.63221     -7405.7517      89.210807     -227.40957      34769.77      -1.1424713    
ec    19200  19.199         0.001          400.23231     -7406.7718      89.344768      334.12309      34756.493      1.3864123    
ec    19300  19.299         0.001          394.23204     -7403.5939      88.005313      144.74505      34759.479      0.55819584   
ec    19400  19.399         0.001          405.44171     -7404.4806      90.507673     -283.60177      34772.78      -2.3316234    
ec    19500  19.499         0.001          388.81071     -7400.2637      86.795097      310.90125      34749.777      2.7810131    
ec    19600  19.599         0.001          389.38193     -7400.1613      86.922612     -708.41009      34789.899     -1.4015583    
ec    19700  19.699         0.001          387.93771     -7401.5582      86.600215      825.91087      34731.016      1.3121852    
ec    19800  19.799         0.001          383.05886     -7403.3403      85.511098     -1437.9136      34806.723     -1.350864     
ec    19900  19.899         0.001          382.7941      -7404.453       85.451997      1342.9334      34708.964     -0.35666863   
ec    20000  19.999         0.001          383.87446     -7400.7502      85.693167     -1916.4624      34824.663      0.97792014   
ec    20100  20.099         0.001          400.14693     -7401.5522      89.325708      1887.0162      34701.123     -1.4352179    
ec    20200  20.199         0.001          409.92366     -7403.8509      91.508189     -1730.7202      34830.838      2.8750414    
ec    20300  20.299         0.001          410.7987      -7405.8343      91.703527      1951.7984      34698.517     -1.8161989    
ec    20400  20.399         0.001          400.30228     -7405.9882      89.360388     -1722.8882      34824.409      1.9061832    
ec    20500  20.499         0.001          399.93435     -7406.9296      89.278253      1993.2524      34696.95      -2.4779337    
ec    20600  20.599         0.001          393.2683      -7402.3002      87.790175     -1646.7757      34821.672      2.0021636    
ec    20700  20.699         0.001          411.39979     -7402.8687      91.83771       1562.5155      34718.372     -1.3834194    
ec    20800  20.799         0.001          398.96684     -7400.7671      89.062273     -969.37375      34801.427      0.48492942   
ec    20900  20.899         0.001          393.42306     -7402.4214      87.824724      464.75312      34745.212     -0.45253176   
ec    21000  20.999         0.001          406.50224     -7406.9819      90.744418     -93.542162      34766.696      0.6440136    
ec    21100  21.099         0.001          395.55284     -7404.4559      88.300159     -200.05953      34768.348     -0.58746401   
ec    21200  21.199         0.001          405.06579     -7400.7765      90.423755      443.60367      34752.294      2.2513291    
ec    21300  21.299         0.001          409.32031     -7401.2506      91.373503     -628.99107      34790.555     -2.976552     
ec    21400  21.399         0.001          389.16499     -7399.9987      86.874185      648.55744      34737.406      3.0735053    
ec    21500  21.499         0.001          390.09766     -7402.3288      87.082386     -1408.6495      34807.247     -2.5787149    
ec    21600  21.599         0.001          404.258       -7405.4753      90.243431      1503.2155      34711.02      -0.62012042   
ec    21700  21.699         0.001          392.15879     -7401.1291      87.542498     -1617.8232      34825.772      0.30306423   
ec    21800  21.799         0.001          414.01249     -7400.7684      92.420949      2207.0994      34699.447     -0.40521092   
ec    21900  21.899         0.001          432.84316     -7405.069       96.624562     -1828.4088      34837.645      0.094969253  
ec    22000  21.999         0.001          384.82001     -7398.3678      85.904245      1801.6546      34697.99       0.50344461   
ec    22100  22.099         0.001          412.97654     -7406.2372      92.189692     -2193.6212      34838.322      2.2664617    
ec    22200  22.199         0.001          391.31761     -7402.3069      87.354719      1803.1391      34695.704     -2.0853974    
ec    22300  22.299         0.001          391.9188      -7402.3905      87.488924     -2181.2232      34835.005      0.045152557  
ec    22400  22.399         0.001          402.44775     -7402.7518      89.839325      1937.1722      34700.611      0.80575607   
ec    22500  22.499         0.001          396.30711     -7398.7538      88.468537     -1746.515       34824.514      0.79138602   
ec    22600  22.599         0.001          405.38814     -7400.6965      90.495714      963.54319      34733.415     -3.8304172    
ec    22700  22.699         0.001          392.40348     -7401.6995      87.597119     -686.35209      34786.361      2.4651302    
ec    22800  22.799         0.001          389.8142      -7402.515       87.019109      101.49232      34757.614      0.40209815   
ec    22900  22.899         0.001          404.14151     -7404.8306      90.217427      23.442206      34765.476     -0.84277952   
ec    23000  22.999         0.001          400.96592     -7402.9723      89.508532     -130.75327      34771.318      2.4412588    
ec    23100  23.099         0.001          408.33607     -7401.953       91.153787      362.57272      34757.307     -2.2069479    
ec    23200  23.199         0.001          432.99885     -7403.5015      96.659316     -114.65762      34781.91       1.4603006    
ec    23300  23.299         0.001          427.00671     -7403.3979      95.321677      813.64372      34749.93      -1.7233759    
ec    23400  23.399         0.001          393.69638     -7401.0194      87.885737     -693.01792      34787.408      1.7757665    
ec    23500  23.499         0.001          394.07428     -7402.457       87.970097      311.65016      34748.286     -2.3786908    
ec    23600  23.599         0.001          382.75045     -7400.747       85.442253     -577.01956      34781.135      1.8157225    
ec    23700  23.699         0.001          385.9876      -7400.7723      86.164889      186.08916      34755.577      0.33578607   
ec    23800  23.799         0.001          405.11231     -7402.472       90.434141     -370.46476      34778.613     -1.2125706    
ec    23900  23.899         0.001          388.77775     -7396.5604      86.787741      438.40331      34753.939      1.8093139    
ec    24000  23.999         0.001          394.51966     -7397.8843      88.069519     -761.82533      34793.91      -2.0645256    
ec    24100  24.099         0.001          406.78008     -7405.6086      90.80644       709.29752      34741.896      0.32747149   
ec    24200  24.199         0.001          391.9876      -7403.3405      87.504283     -715.45146      34786.009      0.1358706    
ec    24300  24.299         0.001          415.71591     -7407.0339      92.801206      635.2992       34745.507     -1.1095719    
ec    24400  24.399         0.001          409.33653     -7403.1652      91.377122     -343.44967      34783.214     -0.40786455   
ec    24500  24.499         0.001          412.36365     -7401.0172      92.052874      608.21561      34754.832      1.0307049    
ec    24600  24.599         0.001          423.33435     -7402.4752      94.501888     -183.35992      34779.827     -1.4300255    
ec    24700  24.699         0.001          421.61488     -7406.8612      94.118046      297.98208      34761.575      1.989957     
ec    24800  24.799         0.001          400.86508     -7404.5307      89.486021      355.10757      34758.499     -1.4464134    
ec    24900  24.899         0.001          383.37347     -7401.1612      85.581329     -302.36523      34772.767      0.76840438   
ec    25000  24.999         0.001          396.39672     -7402.5076      88.488541      165.90676      34755.498     -0.986851     
ec    25100  25.099         0.001          390.23061     -7397.9527      87.112065     -615.83833      34783.901     -0.71492203   
ec    25200  25.199         0.001          399.40123     -7398.6314      89.159242      364.6096       34754.941     -0.2636368    
ec    25300  25.299         0.001          391.78268     -7401.4769      87.458537     -717.30523      34788.343     -1.8231577    
ec    25400  25.399         0.001          410.42433     -7407.6797      91.619954      644.67616      34738.781      0.33239437   
ec    25500  25.499         0.001          407.59679     -7406.066       90.988757     -678.76685      34787.912     -0.13443914   
ec    25600  25.599         0.001          392.92137     -7400.3886      87.712729      618.68308      34744.233      0.66427251   
ec    25700  25.699         0.001          408.31585     -7401.6504      91.149273     -535.69729      34790.606     -1.1158556    
ec    25800  25.799         0.001          406.54884     -7401.9666      90.75482       591.39092      34746.444      0.76030541   
ec    25900  25.899         0.001          397.30734     -7405.0181      88.69182      -657.34225      34785.892     -0.28147838   
ec    26000  25.999         0.001          394.24425     -7404.7876      88.00804       708.16942      34739.453     -0.22957723   
ec    26100  26.099         0.001          399.58728     -7403.6518      89.200776     -641.05933      34787.615     -1.5032766    
ec    26200  26.199         0.001          409.9192      -7402.9543      91.507193      720.24977      34744.006      0.48512707   
ec    26300  26.299         0.001          417.3262      -7404.3861      93.160676     -532.73714      34788.935      1.3164495    
ec    26400  26.399         0.001          395.64789     -7400.8126      88.321377      398.35095      34752.567     -1.8026954    
ec    26500  26.499         0.001          394.5798      -7401.6604      88.082944     -422.70836      34776.22       0.14037037   
ec    26600  26.599         0.001          392.64359     -7401.4673      87.650721     -287.76216      34771.215     -0.6069344    
ec    26700  26.699         0.001          390.36651     -7401.4123      87.142403      267.56907      34757.612      0.49776434   
ec    26800  26.799         0.001          389.54592     -7403.7289      86.95922      -566.97258      34783.85      -0.57479494   
ec    26900  26.899         0.001          384.04227     -7404.5226      85.730629      893.20205      34731.01       0.69202673   
ec    27000  26.999         0.001          401.90573     -7405.8398      89.718329     -1197.8326      34808.127     -0.82883106   
ec    27100  27.099         0.001          387.6005      -7399.2225      86.524939      1587.9424      34710.148      0.21442682   
ec    27200  27.199         0.001          394.13668     -7400.2536      87.984025     -2222.2492      34843.375     -0.38110409   
ec    27300  27.299         0.001          406.82245     -7403.7284      90.815899      2371.3289      34686.342      0.13143441   
ec    27400  27.399         0.001          402.42964     -7405.9151      89.835282     -2447.0744      34850.426      0.38931095   
ec    27500  27.499         0.001          390.21685     -7405.4791      87.108993      2625.9587      34673.414     -2.1056301    
ec    27600  27.599         0.001          391.28595     -7405.2696      87.34765      -2415.0158      34848          1.2215186    
ec    27700  27.699         0.001          400.09741     -7402.5908      89.314654      2415.9476      34684.197     -1.42087      
ec    27800  27.799         0.001          406.2898      -7401.8283      90.696995     -2167.8175      34846.335      2.4744045    
ec    27900  27.899         0.001          403.44771     -7402.0743      90.062548      2016.2126      34699.569     -2.3203626    
ec    28000  27.999         0.001          391.01109     -7402.4419      87.286294     -1744.8876      34824.612      1.360512     
ec    28100  28.099         0.001          386.70133     -7403.4143      86.324217      1303.5802      34718.068     -0.7810139    
ec    28200  28.199         0.001          396.61323     -7404.0749      88.536871     -849.49134      34795.211     -0.26351872   
ec    28300  28.299         0.001          399.76896     -7399.5354      89.241333      453.27509      34753.78      -0.38134627   
ec    28400  28.399         0.001          411.60419     -7402.4611      91.883338      60.311665      34770.677     -0.0014277085 
ec    28500  28.499         0.001          402.58324     -7403.494       89.869571     -234.49028      34776.059     -0.16205713   
ec    28600  28.599         0.001          396.36852     -7404.1694      88.482245      495.55041      34744.493      0.85044844   
ec    28700  28.699         0.001          411.67608     -7406.8953      91.899386     -830.48566      34793.96       0.086603777  
ec    28800  28.799         0.001          400.75424     -7401.5643      89.461278      1025.2779      34731.472     -0.14896912   
ec    28900  28.899         0.001          414.65373     -7400.5605      92.564094     -1299.9553      34817.023     -1.065201     
ec    29000  28.999         0.001          398.81259     -7399.0375      89.02784       1522.2336      34717.037      1.1257704    
ec    29100  29.099         0.001          394.65039     -7401.5163      88.098703     -1712.7971      34825.773     -0.81147745   
ec    29200  29.199         0.001          394.23053     -7402.4745      88.004975      1733.1879      34704.462      0.64478146   
ec    29300  29.299         0.001          403.79175     -7404.6637      90.139349     -1748.2688      34824.833     -1.6847959    
ec    29400  29.399         0.001          406.59042     -7403.6472      90.764103      1629.8462      34713.263      0.39662624   
ec    29500  29.499         0.001          403.39401     -7399.4766      90.05056      -1468.804       34818.077      0.20246044   
ec    29600  29.599         0.001          414.65064     -7400.9112      92.563403      1224.7388      34731.093      1.1254872    
ec    29700  29.699         0.001          402.61993     -7402.6327      89.87776      -972.54367      34800.295     -0.1209316    
ec    29800  29.799         0.001          407.75        -7405.325       91.022959      924.60565      34735.832     -0.4638252    
ec    29900  29.899         0.001          406.81979     -7405.0942      90.815305     -543.73775      34786.891     -0.44516033   
ec    30000  29.999         0.001          392.10909     -7401.247       87.531403      319.12506      34753.638     -1.0844379    
Fix halt condition for fix-id myhalt met on step 30100 with value 30.099 (../fix_halt.cpp:240)
ec    30100  30.099         0.001          407.91058     -7402.8872      91.058805     -194.47594      34773.306      0.66676026   
Loop time of 15.2693 on 4 procs for 30099 steps with 1728 atoms

Performance: 170.313 ns/day, 0.141 hours/ns, 1971.213 timesteps/s, 3.406 Matom-step/s
97.7% CPU use with 4 MPI tasks x no OpenMP threads

MPI task timing breakdown:
Section |  min time  |  avg time  |  max time  |%varavg| %total
---------------------------------------------------------------
Pair    | 12.97      | 13.111     | 13.417     |   5.0 | 85.87
Neigh   | 0          | 0          | 0          |   0.0 |  0.00
Comm    | 1.2811     | 1.5841     | 1.7249     |  14.2 | 10.37
Output  | 0.005496   | 0.007351   | 0.012866   |   3.7 |  0.05
Modify  | 0.44788    | 0.45372    | 0.45664    |   0.5 |  2.97
Other   |            | 0.1131     |            |       |  0.74

Nlocal:            432 ave         432 max         432 min
Histogram: 4 0 0 0 0 0 0 0 0 0
Nghost:           1397 ave        1397 max        1397 min
Histogram: 4 0 0 0 0 0 0 0 0 0
Neighs:              0 ave           0 max           0 min
Histogram: 4 0 0 0 0 0 0 0 0 0
FullNghs:        14688 ave       14688 max       14688 min
Histogram: 4 0 0 0 0 0 0 0 0 0

Total # of neighbors = 58752
Ave neighs/atom = 34
Neighbor list builds = 0
Dangerous builds = 0
unfix myhalt
unfix NPT

fix myhalt all halt 100 v_t >= 60.0 error continue
fix NVT all nvt temp ${temp} ${temp} ${tau_T}
fix NVT all nvt temp 400 ${temp} ${tau_T}
fix NVT all nvt temp 400 400 ${tau_T}
fix NVT all nvt temp 400 400 0.1
run 10000000
Per MPI rank memory allocation (min/avg/max) = 3.624 | 3.624 | 3.624 Mbytes
   Step          Time            Dt            Temp          PotEng         KinEng         Press          Volume         c_1[4]    
ec    30100  30.099         0.001          407.91058     -7402.8872      91.058805     -194.47594      34773.306      0.66676026   
ec    30200  30.199         0.001          394.55035     -7401.2733      88.076371     -306.47686      34773.306     -0.60984346   
ec    30300  30.299         0.001          391.32025     -7403.8346      87.355307     -323.36835      34773.306      0.68772221   
ec    30400  30.399         0.001          375.14664     -7403.0728      83.744836     -398.22991      34773.306     -0.059445985  
ec    30500  30.499         0.001          388.93913     -7404.2143      86.823765     -331.58297      34773.306     -0.2533696    
ec    30600  30.599         0.001          408.92491     -7406.4915      91.285237     -157.51543      34773.306     -0.22189692   
ec    30700  30.699         0.001          405.0909      -7403.9802      90.429361     -222.11056      34773.306      1.0176756    
ec    30800  30.799         0.001          404.21685     -7402.2926      90.234246     -193.16936      34773.306     -1.2893845    
ec    30900  30.899         0.001          398.42552     -7401.4892      88.941434     -275.81738      34773.306     -0.10946232   
ec    31000  30.999         0.001          393.2288      -7403.7         87.781357     -360.14196      34773.306      1.1977883    
ec    31100  31.099         0.001          385.64234     -7403.9845      86.087815     -288.8793       34773.306     -0.21853527   
ec    31200  31.199         0.001          396.20111     -7404.4468      88.444873     -266.0292       34773.306      0.2988332    
ec    31300  31.299         0.001          411.09435     -7404.0173      91.769526     -206.08066      34773.306      0.38454318   
ec    31400  31.399         0.001          401.18859     -7401.6511      89.558241     -167.03782      34773.306     -0.16094651   
ec    31500  31.499         0.001          394.57025     -7401.6176      88.080812     -285.51168      34773.306      0.33123655   
ec    31600  31.599         0.001          390.03168     -7402.4515      87.067658     -328.25249      34773.306      0.84887607   
ec    31700  31.699         0.001          411.51314     -7408.8256      91.863013     -170.15448      34773.306     -3.2134639    
ec    31800  31.799         0.001          398.53517     -7408.1196      88.96591      -277.18973      34773.306      2.8457792    
ec    31900  31.899         0.001          404.09088     -7406.7297      90.206125     -239.80579      34773.306     -0.4018632    
ec    32000  31.999         0.001          409.00929     -7404.2844      91.304071     -126.82391      34773.306      0.45225978   
ec    32100  32.099         0.001          397.46488     -7401.2569      88.726986     -196.76519      34773.306     -1.4176252    
ec    32200  32.199         0.001          392.57267     -7400.5628      87.634888     -205.49161      34773.306      3.2572656    
ec    32300  32.299         0.001          390.25602     -7403.0639      87.117737     -405.78833      34773.306     -1.5178341    
ec    32400  32.399         0.001          386.94411     -7405.6747      86.378412     -482.70839      34773.306     -1.3061048    
ec    32500  32.499         0.001          393.53074     -7405.6157      87.84876      -307.3677       34773.306      2.5079947    
ec    32600  32.599         0.001          392.31573     -7402.0939      87.57753      -311.72849      34773.306     -1.3130325    
ec    32700  32.699         0.001          391.79816     -7401.2809      87.461992     -254.40405      34773.306     -0.16886835   
ec    32800  32.799         0.001          415.30057     -7405.7323      92.70849      -187.09476      34773.306     -0.21332431   
ec    32900  32.899         0.001          406.0769      -7403.3417      90.649468     -342.29218      34773.306      2.647866     
ec    33000  32.999         0.001          390.35908     -7400.4831      87.140745     -389.67052      34773.306     -1.4295662    
ec    33100  33.099         0.001          397.60816     -7404.2499      88.758972     -261.96287      34773.306      1.3933423    
ec    33200  33.199         0.001          396.34387     -7405.9007      88.476742     -293.03835      34773.306     -0.5193851    
ec    33300  33.299         0.001          401.53149     -7405.5806      89.634787     -224.71241      34773.306      0.43032722   
ec    33400  33.399         0.001          407.3554      -7402.3109      90.934871     -111.436        34773.306      0.2478236    
ec    33500  33.499         0.001          400.67581     -7400.8467      89.443771     -154.77202      34773.306     -1.740904     
ec    33600  33.599         0.001          397.90384     -7402.314       88.824978     -302.70113      34773.306      1.725446     
ec    33700  33.699         0.001          399.48843     -7404.8966      89.178708     -415.61472      34773.306      0.52622551   
ec    33800  33.799         0.001          396.72096     -7405.1408      88.560921     -358.47703      34773.306     -0.18312389   
ec    33900  33.899         0.001          390.82852     -7404.2595      87.245537     -298.05584      34773.306      0.48799223   
ec    34000  33.999         0.001          401.8344      -7403.7779      89.702406     -299.50493      34773.306      0.66120976   
ec    34100  34.099         0.001          407.39534     -7402.3017      90.943787     -137.86669      34773.306     -0.73631767   
ec    34200  34.199         0.001          395.46924     -7399.8976      88.281497     -234.21226      34773.306      0.19536991   
ec    34300  34.299         0.001          392.20515     -7402.234       87.552846     -314.18345      34773.306     -0.65526208   
ec    34400  34.399         0.001          397.87508     -7406.2985      88.818558     -433.50689      34773.306      0.89963396   
ec    34500  34.499         0.001          387.42983     -7403.4559      86.486842     -312.70375      34773.306     -0.14635744   
ec    34600  34.599         0.001          395.98183     -7403.6351      88.395923     -257.98315      34773.306      0.7354037    
ec    34700  34.699         0.001          401.44534     -7403.6874      89.615555     -147.42237      34773.306     -0.26990849   
ec    34800  34.799         0.001          414.93534     -7405.4175      92.626957      19.372768      34773.306      0.25316311   
ec    34900  34.899         0.001          414.52635     -7404.1898      92.535659     -77.914722      34773.306     -1.1993542    
ec    35000  34.999         0.001          416.14631     -7403.6175      92.897285     -99.183757      34773.306      1.1630325    
ec    35100  35.099         0.001          400.69094     -7401.9457      89.447149     -279.71802      34773.306     -0.77527751   
ec    35200  35.199         0.001          387.66887     -7402.4293      86.540202     -364.98375      34773.306      0.77045617   
ec    35300  35.299         0.001          388.98382     -7403.5847      86.833741     -313.37646      34773.306     -0.30652054   
ec    35400  35.399         0.001          401.74394     -7403.8063      89.682211     -231.41192      34773.306      1.4702238    
ec    35500  35.499         0.001          407.93595     -7401.1155      91.064467     -103.3103       34773.306     -1.8890569    
ec    35600  35.599         0.001          400.59096     -7400.3238      89.42483      -270.62504      34773.306      2.0145141    
ec    35700  35.699         0.001          399.15073     -7401.9416      89.103324     -281.18262      34773.306      0.078750086  
ec    35800  35.799         0.001          389.67755     -7402.0503      86.988604     -383.58303      34773.306     -0.5180202    
ec    35900  35.899         0.001          399.51852     -7405.2286      89.185426     -322.8283       34773.306     -0.67286098   
ec    36000  35.999         0.001          405.40106     -7404.3604      90.498598     -178.12059      34773.306      1.4913691    
ec    36100  36.099         0.001          409.89431     -7401.0762      91.501637     -118.24026      34773.306     -0.76132514   
ec    36200  36.199         0.001          413.70178     -7402.7632      92.351587     -128.79257      34773.306      0.49888917   
ec    36300  36.299         0.001          400.24158     -7403.1397      89.346837     -188.37189      34773.306      0.75712373   
ec    36400  36.399         0.001          399.03434     -7404.0205      89.077341     -210.02797      34773.306      0.024050506  
ec    36500  36.499         0.001          396.44162     -7403.5131      88.498564     -361.28219      34773.306      0.16112525   
ec    36600  36.599         0.001          400.81725     -7402.7803      89.475345     -392.59328      34773.306     -1.060263     
ec    36700  36.699         0.001          397.14396     -7397.0059      88.655349     -220.7173       34773.306      2.3922802    
ec    36800  36.799         0.001          403.13359     -7399.1025      89.992427     -96.666169      34773.306     -3.1340725    
ec    36900  36.899         0.001          408.52863     -7402.8707      91.196774     -180.43143      34773.306      2.7879142    
ec    37000  36.999         0.001          403.50785     -7403.8895      90.075973     -258.45441      34773.306     -0.96379009   
ec    37100  37.099         0.001          409.63703     -7406.088       91.444204     -227.90029      34773.306      0.60853175   
ec    37200  37.199         0.001          383.19031     -7401.3754      85.540443     -384.34756      34773.306      0.028377234  
ec    37300  37.299         0.001          403.444       -7403.9082      90.061721     -400.47498      34773.306     -1.0380092    
ec    37400  37.399         0.001          404.10346     -7400.5044      90.208934     -125.26321      34773.306      2.1293709    
ec    37500  37.499         0.001          395.15411     -7398.9223      88.211149     -159.52054      34773.306     -0.76698891   
ec    37600  37.599         0.001          403.48642     -7404.2219      90.07119      -206.68649      34773.306     -0.66026287   
ec    37700  37.699         0.001          399.00219     -7405.185       89.070164     -301.10193      34773.306      0.43482355   
ec    37800  37.799         0.001          399.95001     -7404.613       89.281749     -277.38117      34773.306      0.67110811   
ec    37900  37.899         0.001          399.08936     -7402.8246      89.089624     -204.05812      34773.306     -0.65387868   
ec    38000  37.999         0.001          411.07899     -7403.7864      91.766096     -134.37447      34773.306      1.8938766    
ec    38100  38.099         0.001          408.16868     -7401.1193      91.116422     -232.81117      34773.306     -0.84149556   
ec    38200  38.199         0.001          403.64567     -7397.6241      90.106739     -88.40818       34773.306      0.62200603   
ec    38300  38.299         0.001          398.51235     -7399.644       88.960816     -184.24289      34773.306     -1.4753038    
ec    38400  38.399         0.001          399.29562     -7403.4343      89.135668     -399.16978      34773.306      1.2153379    
ec    38500  38.499         0.001          408.71522     -7405.895       91.238427     -221.15496      34773.306     -0.74096246   
ec    38600  38.599         0.001          382.11667     -7400.571       85.300771     -297.83845      34773.306      0.6736262    
ec    38700  38.699         0.001          398.45809     -7401.4146      88.948705     -215.06347      34773.306     -0.40630658   
ec    38800  38.799         0.001          410.16616     -7400.6482      91.562324     -127.568        34773.306      0.14908403   
ec    38900  38.899         0.001          412.39322     -7402.607       92.059475     -245.9479       34773.306      1.8245866    
ec    39000  38.999         0.001          399.34267     -7402.4767      89.146172     -207.66564      34773.306     -1.2882216    
ec    39100  39.099         0.001          405.50216     -7404.245       90.521169     -183.48503      34773.306      0.76256654   
ec    39200  39.199         0.001          402.39147     -7403.9981      89.826761     -283.51636      34773.306     -0.30925133   
ec    39300  39.299         0.001          395.77921     -7402.6317      88.350692     -322.29466      34773.306      0.87318537   
ec    39400  39.399         0.001          395.75127     -7401.1477      88.344454     -138.68158      34773.306     -1.7531496    
ec    39500  39.499         0.001          401.05406     -7400.2662      89.528209     -270.43726      34773.306      1.0829513    
ec    39600  39.599         0.001          401.19068     -7399.8583      89.558707     -267.1437       34773.306     -0.5613873    
ec    39700  39.699         0.001          400.84351     -7403.639       89.481207     -321.36371      34773.306      1.1694506    
ec    39800  39.799         0.001          383.29059     -7402.3946      85.562829     -445.54945      34773.306      0.31855385   
ec    39900  39.899         0.001          403.40476     -7405.5627      90.052961     -241.52453      34773.306      0.10479029   
ec    40000  39.999         0.001          397.99022     -7402.2876      88.84426      -174.40808      34773.306     -1.2973012    
ec    40100  40.099         0.001          394.346       -7399.8415      88.030754     -269.94982      34773.306      0.84732453   
ec    40200  40.199         0.001          402.11624     -7401.8787      89.765321     -169.10045      34773.306     -0.22704861   
ec    40300  40.299         0.001          403.32151     -7402.9686      90.034377     -310.40911      34773.306     -1.0506658    
ec    40400  40.399         0.001          397.88957     -7402.4648      88.821792     -335.84716      34773.306      1.9572527    
ec    40500  40.499         0.001          388.71753     -7401.0352      86.774296     -274.85014      34773.306     -0.82175956   
ec    40600  40.599         0.001          406.64481     -7405.2916      90.776245     -182.03844      34773.306      0.92835054   
ec    40700  40.699         0.001          391.07546     -7402.0764      87.300662     -311.0654       34773.306     -0.362071     
ec    40800  40.799         0.001          408.0129      -7403.7554      91.081646     -170.92263      34773.306      1.8591969    
ec    40900  40.899         0.001          407.41009     -7401.275       90.94708      -132.7855       34773.306     -1.9056465    
ec    41000  40.999         0.001          394.0123      -7398.6948      87.95626      -275.37269      34773.306      0.61362715   
ec    41100  41.099         0.001          388.81217     -7402.2087      86.795423     -365.7743       34773.306     -0.023955563  
ec    41200  41.199         0.001          400.08224     -7405.9148      89.311267     -364.98955      34773.306     -1.2766191    
ec    41300  41.299         0.001          404.9269      -7405.5523      90.392752     -305.79966      34773.306      1.0021191    
ec    41400  41.399         0.001          395.38047     -7400.4466      88.26168      -184.02772      34773.306     -0.24117704   
ec    41500  41.499         0.001          407.11686     -7402.1073      90.881622     -108.61548      34773.306      0.31211503   
ec    41600  41.599         0.001          396.40525     -7400.8587      88.490443     -325.01719      34773.306     -0.34848945   
ec    41700  41.699         0.001          392.24539     -7400.7392      87.561828     -291.78504      34773.306      0.27895683   
ec    41800  41.799         0.001          398.71006     -7403.3025      89.004952     -355.88523      34773.306     -0.15008647   
ec    41900  41.899         0.001          403.26358     -7406.3571      90.021445     -217.29266      34773.306     -0.24179608   
ec    42000  41.999         0.001          392.13254     -7406.8485      87.536638     -295.28219      34773.306      1.0883113    
ec    42100  42.099         0.001          386.03945     -7404.9867      86.176464     -408.76562      34773.306     -1.5738963    
ec    42200  42.199         0.001          409.52784     -7405.4477      91.41983      -175.56898      34773.306      1.3711677    
ec    42300  42.299         0.001          397.40665     -7401.1488      88.71399      -167.35071      34773.306     -0.16012      
ec    42400  42.399         0.001          407.31186     -7403.1136      90.925152     -253.84903      34773.306      0.74205427   
ec    42500  42.499         0.001          403.84042     -7404.1903      90.150214     -322.05719      34773.306     -2.2288672    
ec    42600  42.599         0.001          381.26114     -7402.7126      85.109789     -323.23596      34773.306      0.88872213   
ec    42700  42.699         0.001          384.27054     -7403.7404      85.781584     -385.85929      34773.306      0.22083827   
ec    42800  42.799         0.001          412.8875      -7405.057       92.169814     -156.88728      34773.306     -1.9268484    
ec    42900  42.899         0.001          396.04388     -7400.1901      88.409773     -247.53746      34773.306      1.4869176    
ec    43000  42.999         0.001          397.43867     -7401.7421      88.721137     -323.74078      34773.306     -0.51640153   
ec    43100  43.099         0.001          403.17201     -7405.0413      90.001004     -315.74668      34773.306      0.29358202   
ec    43200  43.199         0.001          384.80852     -7402.8965      85.90168      -456.84833      34773.306      0.80311028   
ec    43300  43.299         0.001          386.24452     -7402.7639      86.222241     -304.18254      34773.306     -0.2975633    
ec    43400  43.399         0.001          420.48309     -7405.9389      93.865394     -59.630857      34773.306     -0.46175057   
ec    43500  43.499         0.001          406.77985     -7401.5077      90.80639      -125.62928      34773.306     -0.61521605   
ec    43600  43.599         0.001          395.38087     -7400.5273      88.26177      -223.95371      34773.306      0.64097661   
ec    43700  43.699         0.001          400.13136     -7404.7033      89.322232     -307.71509      34773.306     -1.3045817    
ec    43800  43.799         0.001          393.97922     -7403.8594      87.948875     -337.51417      34773.306      1.3615874    
ec    43900  43.899         0.001          405.3869      -7405.249       90.495437     -288.21197      34773.306      0.79019576   
ec    44000  43.999         0.001          395.5228      -7402.1548      88.293453     -293.99776      34773.306     -1.7574418    
ec    44100  44.099         0.001          391.53643     -7400.9819      87.403565     -202.3977       34773.306      1.102569     
ec    44200  44.199         0.001          402.9799      -7403.4048      89.958118     -294.07977      34773.306      0.37576252   
ec    44300  44.299         0.001          398.07661     -7403.1933      88.863546     -348.14181      34773.306     -2.0517592    
ec    44400  44.399         0.001          392.38113     -7403.6964      87.59213      -377.3047       34773.306     -0.46468922   
ec    44500  44.499         0.001          393.13794     -7404.9006      87.761075     -321.2913       34773.306      1.6767679    
ec    44600  44.599         0.001          400.52212     -7404.6792      89.409463     -352.43787      34773.306     -1.1010291    
ec    44700  44.699         0.001          391.78228     -7399.3275      87.458448     -275.22523      34773.306      0.77594835   
ec    44800  44.799         0.001          411.53387     -7402.9695      91.867641     -154.34753      34773.306      0.7792447    
ec    44900  44.899         0.001          412.71523     -7405.3581      92.131357     -198.48624      34773.306     -0.56626439   
ec    45000  44.999         0.001          398.83118     -7405.1371      89.03199      -148.33406      34773.306     -0.12127102   
ec    45100  45.099         0.001          378.77551     -7403.7942      84.554916     -408.2081       34773.306      0.82674139   
ec    45200  45.199         0.001          374.97054     -7407.0629      83.705525     -542.03665      34773.306     -0.48879001   
ec    45300  45.299         0.001          391.38201     -7407.2497      87.369096     -404.73952      34773.306      0.21324469   
ec    45400  45.399         0.001          389.81508     -7403.185       87.019305     -429.70477      34773.306     -1.435682     
ec    45500  45.499         0.001          404.77749     -7403.4014      90.359399     -212.87727      34773.306      1.2754061    
ec    45600  45.599         0.001          404.65144     -7401.8153      90.331259     -211.73018      34773.306     -0.84358123   
ec    45700  45.699         0.001          409.05646     -7403.4396      91.314603     -211.49848      34773.306      1.1371436    
ec    45800  45.799         0.001          392.74882     -7403.3911      87.674211     -364.02317      34773.306     -0.28059101   
ec    45900  45.899         0.001          379.81271     -7402.562       84.786454     -428.17606      34773.306      0.127704     
ec    46000  45.999         0.001          397.09741     -7404.6969      88.644957     -369.78296      34773.306      0.070857575  
ec    46100  46.099         0.001          400.57611     -7401.596       89.421513     -379.60228      34773.306     -0.22390486   
ec    46200  46.199         0.001          397.85763     -7400.7051      88.814661     -208.21139      34773.306      0.27030859   
ec    46300  46.299         0.001          393.4613      -7401.8267      87.833259     -304.29269      34773.306     -1.1695864    
ec    46400  46.399         0.001          405.77141     -7406.1596      90.581272     -268.6183       34773.306      2.2099743    
ec    46500  46.499         0.001          392.20336     -7403.1891      87.552447     -291.96532      34773.306     -1.9405768    
ec    46600  46.599         0.001          397.27625     -7401.2831      88.684879     -323.57906      34773.306      1.3269232    
ec    46700  46.699         0.001          415.93345     -7402.3095      92.849769     -242.65157      34773.306      0.013574641  
ec    46800  46.799         0.001          389.54188     -7397.906       86.958319     -294.13556      34773.306     -0.52817142   
ec    46900  46.899         0.001          402.11502     -7403.3285      89.765049     -314.21543      34773.306      1.3704402    
ec    47000  46.999         0.001          397.09269     -7403.0709      88.643902     -351.13979      34773.306     -1.0082172    
ec    47100  47.099         0.001          410.1081      -7405.4827      91.549363     -261.36037      34773.306      1.3754844    
ec    47200  47.199         0.001          389.75224     -7400.504       87.005276     -354.01532      34773.306     -1.8264423    
ec    47300  47.299         0.001          392.04617     -7399.4429      87.517357     -318.1241       34773.306      1.5837326    
ec    47400  47.399         0.001          409.43667     -7401.0255      91.399477     -140.86821      34773.306     -0.57654364   
ec    47500  47.499         0.001          402.34582     -7400.8109      89.816572     -297.8174       34773.306     -0.020110104  
ec    47600  47.599         0.001          395.53203     -7403.3964      88.295512     -291.02431      34773.306      0.87140258   
ec    47700  47.699         0.001          392.24251     -7403.5477      87.561187     -257.08313      34773.306     -0.56852479   
ec    47800  47.799         0.001          396.80774     -7403.2871      88.580292     -378.57302      34773.306     -1.2866401    
ec    47900  47.899         0.001          398.82879     -7401.3563      89.031456     -241.83629      34773.306      2.7637108    
ec    48000  47.999         0.001          418.22404     -7403.4467      93.361101     -124.80862      34773.306     -1.1776719    
ec    48100  48.099         0.001          398.49425     -7395.762       88.956775     -122.56732      34773.306      0.41795235   
ec    48200  48.199         0.001          405.95148     -7398.5321      90.62147      -223.74422      34773.306     -0.40891842   
ec    48300  48.299         0.001          406.9931      -7403.2404      90.853994     -165.23166      34773.306      1.1405742    
ec    48400  48.399         0.001          403.01024     -7404.6973      89.964892     -342.57905      34773.306     -2.1752191    
ec    48500  48.499         0.001          389.5415      -7401.8085      86.958232     -293.88449      34773.306     -0.4436353    
ec    48600  48.599         0.001          405.84996     -7404.1428      90.598809     -89.209661      34773.306      1.6539564    
ec    48700  48.699         0.001          402.85436     -7400.7524      89.930093     -170.685        34773.306     -1.6373767    
ec    48800  48.799         0.001          415.3064      -7401.506       92.70979      -47.364629      34773.306      1.3944768    
ec    48900  48.899         0.001          406.66754     -7402.8922      90.781319     -298.01678      34773.306     -0.96529454   
ec    49000  48.999         0.001          391.44999     -7403.1964      87.384269     -354.3334       34773.306      1.2149828    
ec    49100  49.099         0.001          402.82954     -7405.2106      89.924553     -308.78119      34773.306     -0.54597507   
ec    49200  49.199         0.001          410.70768     -7404.5196      91.683208     -160.32959      34773.306      1.3119288    
ec    49300  49.299         0.001          406.25963     -7402.0014      90.69026      -106.88637      34773.306     -1.4171429    
ec    49400  49.399         0.001          396.74906     -7399.8001      88.567193     -104.36841      34773.306      1.0885489    
ec    49500  49.499         0.001          397.39232     -7403.4166      88.710789     -291.84356      34773.306     -1.9888094    
ec    49600  49.599         0.001          398.49949     -7406.0961      88.957945     -442.24826      34773.306      0.74812994   
ec    49700  49.699         0.001          384.82692     -7401.898       85.905788     -346.35231      34773.306      0.86375597   
ec    49800  49.799         0.001          395.31325     -7400.6044      88.246675     -278.02985      34773.306     -1.1500325    
ec    49900  49.899         0.001          416.06452     -7403.896       92.879027     -81.926161      34773.306      0.95808621   
ec    50000  49.999         0.001          409.42329     -7403.5189      91.39649      -161.66982      34773.306     -0.74332325   
ec    50100  50.099         0.001          398.66158     -7402.6103      88.994129     -234.02862      34773.306      1.0537649    
ec    50200  50.199         0.001          402.95234     -7404.6319      89.951966     -311.45305      34773.306     -2.0890165    
ec    50300  50.299         0.001          385.6477      -7401.4151      86.089011     -383.81341      34773.306      0.62408071   
ec    50400  50.399         0.001          387.20586     -7400.694       86.436842     -358.91422      34773.306     -0.93622171   
ec    50500  50.499         0.001          401.79698     -7401.7182      89.694052     -317.12422      34773.306      1.5004581    
ec    50600  50.599         0.001          419.59682     -7404.2184      93.667552     -46.542321      34773.306     -1.0860274    
ec    50700  50.699         0.001          406.04336     -7403.3562      90.641982     -192.94593      34773.306      1.0849359    
ec    50800  50.799         0.001          394.26749     -7403.958       88.013227     -247.27338      34773.306      1.1850434    
ec    50900  50.899         0.001          389.94829     -7403.3809      87.049041     -395.0109       34773.306     -1.2049106    
ec    51000  50.999         0.001          403.39592     -7404.8177      90.050987     -290.11484      34773.306      0.79468153   
ec    51100  51.099         0.001          405.46332     -7404.3983      90.512498     -367.74576      34773.306     -0.45920576   
ec    51200  51.199         0.001          399.75529     -7402.707       89.238281     -326.10175      34773.306     -0.70461274   
ec    51300  51.299         0.001          398.03195     -7402.1397      88.853576     -283.14417      34773.306      0.35989557   
ec    51400  51.399         0.001          397.5046      -7403.3039      88.735855     -356.74905      34773.306     -1.2600217    
ec    51500  51.499         0.001          399.31928     -7406.186       89.140949     -339.22756      34773.306      1.7837018    
ec    51600  51.599         0.001          394.88004     -7406.13        88.149967     -384.01242      34773.306     -0.53065643   
ec    51700  51.699         0.001          392.1581      -7402.0192      87.542344     -309.83914      34773.306      0.25557252   
ec    51800  51.799         0.001          401.732       -7401.1837      89.679547     -161.18273      34773.306      0.3880624    
ec    51900  51.899         0.001          402.51581     -7401.9926      89.854518     -357.52911      34773.306     -0.17922601   
ec    52000  51.999         0.001          408.51676     -7405.3385      91.194124     -292.5563       34773.306      0.80942874   
ec    52100  52.099         0.001          407.86909     -7407.8637      91.049543     -288.69566      34773.306      0.35927605   
ec    52200  52.199         0.001          393.86159     -7405.9465      87.922618     -353.65953      34773.306     -0.62992092   
ec    52300  52.299         0.001          396.97184     -7404.3257      88.616925     -270.59432      34773.306      0.31231803   
ec    52400  52.399         0.001          418.02226     -7405.1358      93.316058     -218.2808       34773.306      1.4449821    
ec    52500  52.499         0.001          400.66933     -7400.6767      89.442323     -229.86699      34773.306     -1.891281     
ec    52600  52.599         0.001          391.90381     -7400.5649      87.485577     -224.68056      34773.306      1.2937987    
ec    52700  52.699         0.001          405.99325     -7406.984       90.630795     -324.92175      34773.306     -0.40660955   
ec    52800  52.799         0.001          386.7677      -7403.7285      86.339032     -450.27818      34773.306     -1.0256741    
ec    52900  52.899         0.001          396.18019     -7403.0138      88.440202     -247.0168       34773.306      1.256435     
ec    53000  52.999         0.001          410.84242     -7404.0306      91.713286     -93.62522       34773.306     -1.5835298    
ec    53100  53.099         0.001          397.28638     -7401.9139      88.687141     -349.4912       34773.306      1.2446815    
ec    53200  53.199         0.001          403.20009     -7403.9084      90.007272     -328.66861      34773.306     -0.44372395   
ec    53300  53.299         0.001          391.66538     -7402.2991      87.432351     -344.65654      34773.306      0.77505088   
ec    53400  53.399         0.001          394.90717     -7403.4154      88.156024     -398.64197      34773.306     -0.3677922    
ec    53500  53.499         0.001          404.92902     -7404.5356      90.393224     -263.29851      34773.306      0.83784268   
ec    53600  53.599         0.001          406.39833     -7401.7521      90.721221     -189.6488       34773.306     -0.36890887   
ec    53700  53.699         0.001          399.14054     -7399.0865      89.101049     -34.64111       34773.306     -0.82517493   
ec    53800  53.799         0.001          399.91332     -7403.0381      89.273558     -225.10161      34773.306      0.34773106   
ec    53900  53.899         0.001          391.69922     -7404.0155      87.439907     -360.25388      34773.306     -0.29299526   
ec    54000  53.999         0.001          388.2242      -7402.4991      86.664169     -358.18913      34773.306      0.6880729    
ec    54100  54.099         0.001          394.53578     -7401.541       88.073117     -204.69347      34773.306      0.20042712   
ec    54200  54.199         0.001          403.60001     -7401.5321      90.096546     -241.9841       34773.306     -1.024746     
ec    54300  54.299         0.001          408.38837     -7402.4395      91.165463     -205.84276      34773.306      2.3455565    
ec    54400  54.399         0.001          399.01434     -7405.6792      89.072877     -345.25846      34773.306     -2.3970229    
ec    54500  54.499         0.001          393.51326     -7405.6514      87.844858     -400.85168      34773.306      0.80695643   
ec    54600  54.599         0.001          390.32084     -7402.0909      87.132207     -292.01505      34773.306      1.1931737    
ec    54700  54.699         0.001          390.21767     -7399.7928      87.109177     -305.62563      34773.306     -1.1897431    
ec    54800  54.799         0.001          396.63494     -7400.9498      88.541719     -313.50302      34773.306      0.99240759   
ec    54900  54.899         0.001          409.61412     -7404.5088      91.439089     -271.46351      34773.306      0.13833392   
ec    55000  54.999         0.001          392.54853     -7402.2321      87.629499     -282.19537      34773.306     -0.43607631   
ec    55100  55.099         0.001          400.23217     -7407.7865      89.344736     -323.92455      34773.306     -0.045337292  
ec    55200  55.199         0.001          388.56082     -7407.3086      86.739314     -535.94634      34773.306      1.0585039    
ec    55300  55.299         0.001          386.53711     -7403.044       86.287557     -328.95168      34773.306     -0.77802656   
ec    55400  55.399         0.001          395.82823     -7402.4079      88.361634     -195.42874      34773.306      1.0201168    
ec    55500  55.499         0.001          414.52455     -7404.9966      92.535256     -257.93439      34773.306     -0.78416265   
ec    55600  55.599         0.001          412.7347      -7403.9915      92.135703     -201.72222      34773.306      0.12449119   
ec    55700  55.699         0.001          409.86496     -7404.3812      91.495086     -202.01374      34773.306      0.22589883   
ec    55800  55.799         0.001          394.22627     -7404.5815      88.004026     -312.48694      34773.306      0.27673932   
ec    55900  55.899         0.001          384.58003     -7403.2969      85.850673     -417.41837      34773.306      0.021572031  
ec    56000  55.999         0.001          402.39827     -7403.7939      89.828278     -213.60693      34773.306     -0.24847698   
ec    56100  56.099         0.001          406.35966     -7402.4771      90.71259      -165.18636      34773.306     -0.18637691   
ec    56200  56.199         0.001          399.40641     -7401.4055      89.1604       -329.50111      34773.306      0.40082496   
ec    56300  56.299         0.001          404.83036     -7403.774       90.371201     -299.71056      34773.306     -0.9628763    
ec    56400  56.399         0.001          387.50158     -7402.1444      86.502858     -368.80176      34773.306      0.92907732   
ec    56500  56.499         0.001          396.07847     -7406.416       88.417496     -385.44226      34773.306      0.19628371   
ec    56600  56.599         0.001          381.07993     -7405.519       85.069337     -452.53516      34773.306     -1.4612938    
ec    56700  56.699         0.001          401.35934     -7406.9145      89.596356     -300.7693       34773.306      1.0404985    
ec    56800  56.799         0.001          386.61876     -7400.1896      86.305784     -257.44271      34773.306     -0.008212284  
ec    56900  56.899         0.001          396.61876     -7400.8129      88.538106     -199.85677      34773.306     -0.3857477    
ec    57000  56.999         0.001          401.74165     -7402.119       89.681701     -232.34191      34773.306      0.94129995   
ec    57100  57.099         0.001          404.91717     -7405.3456      90.390579     -241.34057      34773.306     -0.43635015   
ec    57200  57.199         0.001          387.61395     -7404.8065      86.527943     -355.31387      34773.306     -0.29256901   
ec    57300  57.299         0.001          384.77404     -7403.4128      85.893982     -382.21136      34773.306     -0.20718015   
ec    57400  57.399         0.001          405.21005     -7403.479       90.455959     -275.37682      34773.306      0.73187056   
ec    57500  57.499         0.001          396.70061     -7401.2839      88.556379     -335.63858      34773.306     -0.52329579   
ec    57600  57.599         0.001          393.21867     -7401.0563      87.779096     -279.3686       34773.306     -0.76114528   
ec    57700  57.699         0.001          391.69188     -7402.3256      87.438269     -350.83897      34773.306      0.91474813   
ec    57800  57.799         0.001          382.46445     -7402.1436      85.378408     -310.54304      34773.306     -0.86806174   
ec    57900  57.899         0.001          385.05689     -7403.5737      85.957125     -409.75299      34773.306      0.80469298   
ec    58000  57.999         0.001          405.61357     -7404.4991      90.546037     -198.90231      34773.306     -0.81017169   
ec    58100  58.099         0.001          411.47528     -7402.9753      91.854561     -85.322172      34773.306      1.6211811    
ec    58200  58.199         0.001          399.75746     -7401.2992      89.238766     -269.42854      34773.306     -0.14061676   
ec    58300  58.299         0.001          401.74267     -7403.9837      89.681929     -304.91926      34773.306      0.86803116   
ec    58400  58.399         0.001          391.78307     -7405.4727      87.458625     -386.86135      34773.306     -1.1825475    
ec    58500  58.499         0.001          380.81531     -7403.1469      85.010267     -462.23629      34773.306      0.29225419   
ec    58600  58.599         0.001          404.62464     -7403.9446      90.325277     -185.27794      34773.306      0.033430292  
ec    58700  58.699         0.001          412.11707     -7404.7096      91.99783      -278.28647      34773.306     -0.47581225   
ec    58800  58.799         0.001          394.25783     -7401.4083      88.011071     -363.15531      34773.306      0.31187793   
ec    58900  58.899         0.001          385.7233      -7400.6328      86.105887     -391.84543      34773.306     -0.37620129   
ec    59000  58.999         0.001          383.8664      -7400.9379      85.691369     -402.47376      34773.306     -0.23062172   
ec    59100  59.099         0.001          393.73169     -7403.2169      87.893619     -370.89764      34773.306      0.52106625   
ec    59200  59.199         0.001          413.20186     -7404.7754      92.239989     -117.37089      34773.306     -0.062368675  
ec    59300  59.299         0.001          409.07308     -7401.4719      91.318313     -162.83873      34773.306     -0.014423559  
ec    59400  59.399         0.001          416.26743     -7403.6185      92.924323     -106.06364      34773.306      0.68928331   
ec    59500  59.499         0.001          406.62692     -7406.2828      90.772251     -88.861364      34773.306     -1.1271445    
ec    59600  59.599         0.001          394.64109     -7404.5748      88.096626     -405.71831      34773.306      1.601119     
ec    59700  59.699         0.001          391.937       -7402.2601      87.492986     -350.26596      34773.306     -1.8340641    
ec    59800  59.799         0.001          408.27888     -7403.4853      91.141022     -187.60978      34773.306      0.85985777   
ec    59900  59.899         0.001          390.26319     -7398.4469      87.119338     -281.93543      34773.306      1.1913631    
ec    60000  59.999         0.001          410.36945     -7404.0616      91.607703     -273.23108      34773.306     -2.1055509    
Fix halt condition for fix-id myhalt met on step 60100 with value 60.099000000000004 (../fix_halt.cpp:240)
ec    60100  60.099         0.001          393.54008     -7404.2535      87.850845     -318.74143      34773.306      1.7456609    
Loop time of 14.6958 on 4 procs for 30000 steps with 1728 atoms

Performance: 176.377 ns/day, 0.136 hours/ns, 2041.397 timesteps/s, 3.528 Matom-step/s
97.8% CPU use with 4 MPI tasks x no OpenMP threads

MPI task timing breakdown:
Section |  min time  |  avg time  |  max time  |%varavg| %total
---------------------------------------------------------------
Pair    | 12.603     | 12.953     | 13.307     |   7.9 | 88.14
Neigh   | 0          | 0          | 0          |   0.0 |  0.00
Comm    | 1.0788     | 1.4323     | 1.7803     |  23.7 |  9.75
Output  | 0.0056191  | 0.0078867  | 0.014603   |   4.4 |  0.05
Modify  | 0.19031    | 0.19276    | 0.19392    |   0.3 |  1.31
Other   |            | 0.1096     |            |       |  0.75

Nlocal:            432 ave         440 max         422 min
Histogram: 1 0 0 1 0 0 0 0 1 1
Nghost:           1397 ave        1407 max        1389 min
Histogram: 1 1 0 0 0 0 1 0 0 1
Neighs:              0 ave           0 max           0 min
Histogram: 4 0 0 0 0 0 0 0 0 0
FullNghs:        14919 ave       15213 max       14564 min
Histogram: 1 0 0 1 0 0 0 0 1 1

Total # of neighbors = 59676
Ave neighs/atom = 34.534722
Neighbor list builds = 0
Dangerous builds = 0

write_data cell.data_${temp}
write_data cell.data_400
System init for write_data ...
Total wall time: 0:00:29
