

units metal
timestep 0.001
boundary p p p

lattice         diamond 5.43
Lattice spacing in x,y,z = 5.43 5.43 5.43
region          box block 0 ${N} 0 ${N} 0 ${N}
region          box block 0 2 0 ${N} 0 ${N}
region          box block 0 2 0 2 0 ${N}
region          box block 0 2 0 2 0 2
create_box      1 box
Created orthogonal box = (0 0 0) to (10.86 10.86 10.86)
  1 by 1 by 2 MPI processor grid
create_atoms    1 box
Created 64 atoms
  using lattice units in orthogonal box = (0 0 0) to (10.86 10.86 10.86)
  create_atoms CPU = 0.000 seconds

timestep ${dt}
timestep 0.003

mass 1 28.0855
labelmap atom 1 Si

pair_style sw
pair_coeff * * Si.sw Si
Reading sw potential file Si.sw with DATE: 2007-06-11


velocity all create ${temp} 4928459 mom yes rot yes dist gaussian
velocity all create 300 4928459 mom yes rot yes dist gaussian

variable t equal time
#fix myhalt all halt 100 v_t >= 30.0 error continue

#fix NVE all nve

#run 10000000

#unfix myhalt

compute 1 all vacf

thermo 100
thermo_style	custom step time dt temp pe ke press vol #c_1[4]
thermo_modify	line one flush yes format 1 "ec %8lu" flush yes


fix NPT all npt temp ${temp} ${temp} ${tau_T} iso 0.0 0.0 1.0
fix NPT all npt temp 300 ${temp} ${tau_T} iso 0.0 0.0 1.0
fix NPT all npt temp 300 300 ${tau_T} iso 0.0 0.0 1.0
fix NPT all npt temp 300 300 0.1 iso 0.0 0.0 1.0

fix myhalt all halt 100 v_t >= 30.0 error continue

run 10000000

CITE-CITE-CITE-CITE-CITE-CITE-CITE-CITE-CITE-CITE-CITE-CITE-CITE

Your simulation uses code contributions which should be cited:

- Type Label Framework: https://doi.org/10.1021/acs.jpcb.3c08419

@Article{Gissinger24,
 author = {Jacob R. Gissinger, Ilia Nikiforov, Yaser Afshar, Brendon Waters, Moon-ki Choi, Daniel S. Karls, Alexander Stukowski, Wonpil Im, Hendrik Heinz, Axel Kohlmeyer, and Ellad B. Tadmor},
 title = {Type Label Framework for Bonded Force Fields in LAMMPS},
 journal = {J. Phys. Chem. B},
 year =    2024,
 volume =  128,
 number =  13,
 pages =   {3282--3297}
}

CITE-CITE-CITE-CITE-CITE-CITE-CITE-CITE-CITE-CITE-CITE-CITE-CITE

Neighbor list info ...
  update: every = 1 steps, delay = 0 steps, check = yes
  max neighbors/atom: 2000, page size: 100000
  master list distance cutoff = 5.77118
  ghost atom cutoff = 5.77118
  binsize = 2.88559, bins = 4 4 4
  1 neighbor lists, perpetual/occasional/extra = 1 0 0
  (1) pair sw, perpetual
      attributes: full, newton on
      pair build: full/bin/atomonly
      stencil: full/bin/3d
      bin: standard
Per MPI rank memory allocation (min/avg/max) = 3.57 | 3.57 | 3.57 Mbytes
   Step          Time            Dt            Temp          PotEng         KinEng         Press          Volume    
ec        0  0              0.003          300           -277.54229      2.4430167      2569.8731      1280.8241    
ec      100  0.3            0.003          266.21651     -275.52083      2.1679046     -19.32018       1285.1143    
ec      200  0.6            0.003          375.38017     -275.18712      3.0568668     -1311.9354      1288.7241    
ec      300  0.9            0.003          307.56164     -275.49549      2.5045941     -2600.5125      1288.9863    
ec      400  1.2            0.003          381.81369     -275.39976      3.1092574     -363.62069      1286.6717    
ec      500  1.5            0.003          363.51072     -275.87493      2.9602092      5056.6536      1280.4434    
ec      600  1.8            0.003          225.8373      -274.07052      1.839081       3645.4859      1282.0552    
ec      700  2.1            0.003          285.8048      -275.41904      2.3274197     -2361.4756      1289.1118    
ec      800  2.4            0.003          296.68728     -274.95229      2.41604       -8726.0106      1297.3872    
ec      900  2.7            0.003          317.08799     -275.63696      2.5821709     -3588.3391      1290.6741    
ec     1000  3              0.003          275.60632     -274.67986      2.2443695      6777.3286      1278.5847    
ec     1100  3.3            0.003          264.83173     -275.05972      2.1566278      8880.4583      1274.8651    
ec     1200  3.6            0.003          288.26833     -275.07683      2.3474812      1105.2171      1284.8754    
ec     1300  3.9            0.003          334.63038     -275.14826      2.7250254     -8527.4935      1297.2799    
ec     1400  4.2            0.003          305.27834     -275.61497      2.4860003     -6418.899       1294.5112    
ec     1500  4.5            0.003          259.50494     -274.395        2.1132497      2196.7146      1284.2145    
ec     1600  4.8            0.003          284.90734     -275.25265      2.3201113      8411.4651      1275.6332    
ec     1700  5.1            0.003          343.39431     -275.07586      2.7963935      3813.9107      1281.5729    
ec     1800  5.4            0.003          269.94193     -274.93598      2.1982422     -3746.024       1291.049     
ec     1900  5.7            0.003          333.11683     -273.89536      2.7127        -3655.9783      1293.7498    
ec     2000  6              0.003          249.55244     -274.76964      2.0322027     -1466.8716      1287.7044    
ec     2100  6.3            0.003          397.351       -275.41415      3.2357838      3593.4091      1282.3689    
ec     2200  6.6            0.003          277.47414     -274.84679      2.2595799      1890.1877      1283.2582    
ec     2300  6.9            0.003          278.66767     -274.80251      2.2692993     -266.39603      1286.5982    
ec     2400  7.2            0.003          350.31298     -275.34069      2.8527349     -1272.9084      1288.591     
ec     2500  7.5            0.003          332.66572     -275.33822      2.7090264     -2692.3338      1288.4663    
ec     2600  7.8            0.003          437.24811     -275.03757      3.5606815      1387.3769      1285.6015    
ec     2700  8.1            0.003          207.07905     -274.52854      1.6863253      1134.4928      1284.0205    
ec     2800  8.4            0.003          393.12579     -275.26781      3.2013763      1140.0428      1285.1978    
ec     2900  8.7            0.003          327.89221     -275.30522      2.6701538     -635.87987      1287.0395    
ec     3000  9              0.003          301.32368     -274.84354      2.453796      -1832.2193      1288.3558    
ec     3100  9.3            0.003          299.33236     -275.0897       2.4375799      35.931295      1286.018     
ec     3200  9.6            0.003          311.97966     -274.91296      2.5405718      1825.4726      1283.4711    
ec     3300  9.9            0.003          330.97651     -275.36759      2.6952705      4415.1086      1281.0219    
ec     3400  10.2           0.003          319.76782     -275.01074      2.6039938     -1981.9555      1288.4529    
ec     3500  10.5           0.003          307.8912      -275.33256      2.5072779     -6140.793       1293.6637    
ec     3600  10.8           0.003          266.91037     -274.46139      2.173555      -4367.186       1291.6791    
ec     3700  11.1           0.003          327.59773     -275.17129      2.6677558      5358.7439      1279.4683    
ec     3800  11.4           0.003          306.73482     -275.35548      2.497861       10681.04       1273.0257    
ec     3900  11.7           0.003          317.08942     -274.70878      2.5821825      658.42446      1284.9365    
ec     4000  12             0.003          272.46557     -275.10318      2.2187931     -9471.6946      1298.3733    
ec     4100  12.3           0.003          244.26693     -274.33333      1.9891606     -10805.696      1299.7896    
ec     4200  12.6           0.003          318.01938     -275.60751      2.5897556      2383.4804      1283.1371    
ec     4300  12.9           0.003          334.3705      -275.1482       2.7229091      10308.475      1273.7354    
ec     4400  13.2           0.003          219.1823      -274.9996       1.7848867      4623.8082      1279.43      
ec     4500  13.5           0.003          325.77673     -275.0611       2.6529267     -2992.4809      1290.6166    
ec     4600  13.8           0.003          280.7103      -275.3192       2.2859332     -6084.8167      1293.196     
ec     4700  14.1           0.003          355.5808      -275.24746      2.8956329     -348.246        1287.5625    
ec     4800  14.4           0.003          274.88505     -275.02494      2.2384959      2296.2767      1282.8979    
ec     4900  14.7           0.003          282.10437     -275.44595      2.2972857      2920.7422      1282.1966    
ec     5000  15             0.003          333.67581     -275.16143      2.717252      -169.54171      1286.7211    
ec     5100  15.3           0.003          277.90519     -275.48486      2.2630901     -3519.6423      1289.7123    
ec     5200  15.6           0.003          333.89905     -275.09526      2.7190699     -890.71001      1288.4078    
ec     5300  15.9           0.003          244.22074     -275.16552      1.9887845      917.68544      1284.0771    
ec     5400  16.2           0.003          334.04687     -274.91619      2.7202737      4112.2726      1281.6389    
ec     5500  16.5           0.003          249.99758     -275.09498      2.0358276      1335.0629      1284.0724    
ec     5600  16.8           0.003          306.43202     -275.03283      2.4953952     -3144.2095      1290.0085    
ec     5700  17.1           0.003          314.09236     -274.94942      2.5577763     -3908.3545      1291.3743    
ec     5800  17.4           0.003          238.37422     -274.84844      1.941174      -684.10297      1286.4958    
ec     5900  17.7           0.003          309.85129     -274.94426      2.5232396      5358.1721      1280.0624    
ec     6000  18             0.003          279.61451     -274.9705       2.2770098      3441.5244      1281.1729    
ec     6100  18.3           0.003          313.43292     -274.80517      2.5524062     -1268.2617      1288.3588    
ec     6200  18.6           0.003          253.00923     -274.90179      2.0603527     -6692.7437      1294.4713    
ec     6300  18.9           0.003          319.13817     -274.58902      2.5988663     -3896.3643      1291.6826    
ec     6400  19.2           0.003          335.90959     -275.39014      2.7354425      5555.0966      1279.437     
ec     6500  19.5           0.003          326.14141     -274.72692      2.6558965      8416.4442      1275.42      
ec     6600  19.8           0.003          338.51351     -275.46503      2.7566472      2459.6318      1283.3466    
ec     6700  20.1           0.003          304.96207     -274.68928      2.4834248     -9730.2476      1299.0206    
ec     6800  20.4           0.003          317.80961     -275.11854      2.5880473     -9671.7233      1298.7851    
ec     6900  20.7           0.003          295.202       -275.01935      2.4039447      1950.6533      1283.6237    
ec     7000  21             0.003          274.21145     -274.54859      2.2330105      11504.985      1271.8116    
ec     7100  21.3           0.003          328.22512     -275.28813      2.6728649      7081.5591      1277.4919    
ec     7200  21.6           0.003          287.1273      -274.04873      2.3381893     -5589.9434      1293.5101    
ec     7300  21.9           0.003          292.66675     -275.2646       2.3832993     -6394.8913      1294.3798    
ec     7400  22.2           0.003          349.05361     -274.83511      2.8424794     -2058.8057      1289.1592    
ec     7500  22.5           0.003          304.49471     -275.10288      2.4796189      3564.8761      1281.5178    
ec     7600  22.8           0.003          306.49423     -275.16977      2.4959018      3992.85        1281.3585    
ec     7700  23.1           0.003          323.30602     -274.96786      2.6328067     -1066.9953      1287.2526    
ec     7800  23.4           0.003          336.46325     -275.53602      2.7399511     -2759.2198      1289.7641    
ec     7900  23.7           0.003          280.39978     -274.82975      2.2834045     -2652.106       1289.4653    
ec     8000  24             0.003          279.16887     -275.55382      2.2733807      1583.1053      1283.8284    
ec     8100  24.3           0.003          316.42802     -274.98561      2.5767965      3167.7368      1282.2031    
ec     8200  24.6           0.003          293.1451      -275.59417      2.3871947      1322.9673      1283.8153    
ec     8300  24.9           0.003          295.73311     -274.71592      2.4082698     -2541.2528      1290.1236    
ec     8400  25.2           0.003          241.30018     -275.01352      1.9650013     -5913.7811      1293.3476    
ec     8500  25.5           0.003          392.86791     -275.31289      3.1992763     -314.3169       1287.4144    
ec     8600  25.8           0.003          246.85497     -274.89445      2.0102361      8584.2573      1274.6583    
ec     8700  26.1           0.003          293.8041      -274.93189      2.3925611      9595.7045      1274.3499    
ec     8800  26.4           0.003          292.5037      -275.15962      2.3819715     -3506.9567      1290.1493    
ec     8900  26.7           0.003          332.95505     -274.94099      2.7113826     -11980.722      1301.9995    
ec     9000  27             0.003          266.40097     -275.21214      2.1694067     -5219.1299      1292.8924    
ec     9100  27.3           0.003          272.50875     -274.51013      2.2191448      4683.3842      1279.746     
ec     9200  27.6           0.003          268.70918     -275.45984      2.1882034      9363.7029      1273.9574    
ec     9300  27.9           0.003          296.19766     -274.81668      2.4120528      1234.9649      1284.4408    
ec     9400  28.2           0.003          279.82584     -275.58381      2.2787307     -5561.812       1292.7462    
ec     9500  28.5           0.003          287.31484     -274.868        2.3397166     -4879.3157      1292.8628    
ec     9600  28.8           0.003          259.40085     -275.05618      2.112402      -148.49799      1285.2897    
ec     9700  29.1           0.003          322.21037     -274.94868      2.6238844      5707.4125      1279.5555    
ec     9800  29.4           0.003          252.81003     -274.95268      2.0587305      2647.8848      1282.2008    
ec     9900  29.7           0.003          284.93405     -275.66864      2.3203288     -1479.9507      1287.6106    
Fix halt condition for fix-id myhalt met on step 10000 with value 30 (../fix_halt.cpp:240)
ec    10000  30             0.003          294.68477     -274.715        2.3997327     -3693.6105      1291.1926    
Loop time of 0.421334 on 2 procs for 10000 steps with 64 atoms

Performance: 6151.896 ns/day, 0.004 hours/ns, 23734.167 timesteps/s, 1.519 Matom-step/s
100.0% CPU use with 2 MPI tasks x no OpenMP threads

MPI task timing breakdown:
Section |  min time  |  avg time  |  max time  |%varavg| %total
---------------------------------------------------------------
Pair    | 0.28995    | 0.29929    | 0.30863    |   1.7 | 71.03
Neigh   | 0          | 0          | 0          |   0.0 |  0.00
Comm    | 0.074229   | 0.083469   | 0.092709   |   3.2 | 19.81
Output  | 0.00082079 | 0.0014718  | 0.0021228  |   1.7 |  0.35
Modify  | 0.028956   | 0.029655   | 0.030354   |   0.4 |  7.04
Other   |            | 0.007447   |            |       |  1.77

Nlocal:             32 ave          32 max          32 min
Histogram: 2 0 0 0 0 0 0 0 0 0
Nghost:            444 ave         444 max         444 min
Histogram: 2 0 0 0 0 0 0 0 0 0
Neighs:              0 ave           0 max           0 min
Histogram: 2 0 0 0 0 0 0 0 0 0
FullNghs:         1088 ave        1088 max        1088 min
Histogram: 2 0 0 0 0 0 0 0 0 0

Total # of neighbors = 2176
Ave neighs/atom = 34
Neighbor list builds = 0
Dangerous builds = 0

unfix myhalt

fix myhalt all halt 100 v_t >= 60.0 error continue

unfix NPT

fix NVT all nvt temp ${temp} ${temp} ${tau_T}
fix NVT all nvt temp 300 ${temp} ${tau_T}
fix NVT all nvt temp 300 300 ${tau_T}
fix NVT all nvt temp 300 300 0.1

run 10000000
Per MPI rank memory allocation (min/avg/max) = 3.57 | 3.57 | 3.57 Mbytes
   Step          Time            Dt            Temp          PotEng         KinEng         Press          Volume    
ec    10000  30             0.003          294.68477     -274.715        2.3997327     -3693.6105      1291.1926    
ec    10100  30.3           0.003          225.27737     -275.12162      1.8345213     -4770.622       1291.1926    
ec    10200  30.6           0.003          316.31616     -275.14131      2.5758856     -3781.5299      1291.1926    
ec    10300  30.9           0.003          328.22037     -275.26481      2.6728262     -4214.4978      1291.1926    
ec    10400  31.2           0.003          278.80182     -275.11277      2.2703917     -3877.8704      1291.1926    
ec    10500  31.5           0.003          275.85756     -274.81397      2.2464154     -4444.3143      1291.1926    
ec    10600  31.8           0.003          290.89117     -274.96294      2.36884       -3937.0754      1291.1926    
ec    10700  32.1           0.003          284.86313     -274.969        2.3197513     -4003.7558      1291.1926    
ec    10800  32.4           0.003          272.34441     -274.62296      2.2178065     -3858.2972      1291.1926    
ec    10900  32.7           0.003          340.12919     -275.01972      2.7698043     -3661.9952      1291.1926    
ec    11000  33             0.003          276.37453     -275.03563      2.2506253     -4720.9348      1291.1926    
ec    11100  33.3           0.003          386.80102     -275.42901      3.1498713     -3462.0833      1291.1926    
ec    11200  33.6           0.003          289.76461     -275.0734       2.359666      -4216.746       1291.1926    
ec    11300  33.9           0.003          333.93294     -274.94598      2.7193459     -3446.9086      1291.1926    
ec    11400  34.2           0.003          286.76977     -275.38432      2.3352778     -4393.2446      1291.1926    
ec    11500  34.5           0.003          297.17839     -274.98621      2.4200392     -4154.5555      1291.1926    
ec    11600  34.8           0.003          309.16081     -275.24263      2.5176168     -3382.9521      1291.1926    
ec    11700  35.1           0.003          266.51621     -274.72535      2.1703452     -4114.8927      1291.1926    
ec    11800  35.4           0.003          378.40766     -275.70272      3.0815208     -3738.0441      1291.1926    
ec    11900  35.7           0.003          236.88076     -275.16251      1.9290122     -4540.2502      1291.1926    
ec    12000  36             0.003          294.26077     -274.63159      2.39628       -3769.9251      1291.1926    
ec    12100  36.3           0.003          299.27388     -275.52584      2.4371037     -4118.1394      1291.1926    
ec    12200  36.6           0.003          317.29217     -275.13121      2.5838336     -4045.5479      1291.1926    
ec    12300  36.9           0.003          298.57878     -274.69848      2.4314432     -3365.4566      1291.1926    
ec    12400  37.2           0.003          228.86489     -274.77148      1.8637358     -4655.784       1291.1926    
ec    12500  37.5           0.003          349.7486      -275.20472      2.848139      -3684.7868      1291.1926    
ec    12600  37.8           0.003          290.42616     -275.06135      2.3650532     -3974.8031      1291.1926    
ec    12700  38.1           0.003          308.92521     -274.90704      2.5156982     -3527.2889      1291.1926    
ec    12800  38.4           0.003          299.72472     -275.08972      2.440775      -4058.1932      1291.1926    
ec    12900  38.7           0.003          327.49047     -275.02212      2.6668823     -4219.4177      1291.1926    
ec    13000  39             0.003          328.85539     -275.31598      2.6779974     -3564.4133      1291.1926    
ec    13100  39.3           0.003          319.61631     -274.65573      2.60276       -3610.1229      1291.1926    
ec    13200  39.6           0.003          276.30237     -275.04861      2.2500377     -3634.1663      1291.1926    
ec    13300  39.9           0.003          339.05701     -274.50437      2.7610731     -3492.8065      1291.1926    
ec    13400  40.2           0.003          274.51743     -275.0356       2.2355022     -4049.857       1291.1926    
ec    13500  40.5           0.003          366.18693     -275.0311       2.9820027     -3078.4743      1291.1926    
ec    13600  40.8           0.003          274.4253      -274.98502      2.234752      -4358.7861      1291.1926    
ec    13700  41.1           0.003          366.50392     -275.23373      2.9845841     -3574.9768      1291.1926    
ec    13800  41.4           0.003          226.99714     -274.86516      1.848526      -4519.7695      1291.1926    
ec    13900  41.7           0.003          289.14324     -274.54863      2.3546059     -3592.7433      1291.1926    
ec    14000  42             0.003          303.7068      -275.29326      2.4732026     -4077.7519      1291.1926    
ec    14100  42.3           0.003          314.74197     -274.84604      2.5630663     -3975.7375      1291.1926    
ec    14200  42.6           0.003          250.57108     -274.99207      2.0404978     -4160.7258      1291.1926    
ec    14300  42.9           0.003          269.05099     -274.73616      2.1909869     -4331.7899      1291.1926    
ec    14400  43.2           0.003          315.46753     -275.72431      2.5689749     -4229.1133      1291.1926    
ec    14500  43.5           0.003          300.85624     -274.92665      2.4499894     -4093.0614      1291.1926    
ec    14600  43.8           0.003          277.19514     -275.35419      2.2573079     -4158.1396      1291.1926    
ec    14700  44.1           0.003          265.7694      -274.84586      2.1642636     -4034.5114      1291.1926    
ec    14800  44.4           0.003          309.21662     -274.90452      2.5180712     -4133.647       1291.1926    
ec    14900  44.7           0.003          274.47276     -275.2712       2.2351385     -3959.621       1291.1926    
ec    15000  45             0.003          284.54759     -274.54273      2.3171818     -3759.0247      1291.1926    
ec    15100  45.3           0.003          304.20045     -275.22642      2.4772226     -3772.1844      1291.1926    
ec    15200  45.6           0.003          322.90746     -275.05456      2.6295611     -4414.0799      1291.1926    
ec    15300  45.9           0.003          326.24217     -275.16728      2.656717      -3888.8449      1291.1926    
ec    15400  46.2           0.003          333.92693     -275.23255      2.719297      -3615.2856      1291.1926    
ec    15500  46.5           0.003          277.50437     -275.12573      2.2598261     -4557.1963      1291.1926    
ec    15600  46.8           0.003          359.05728     -275.19141      2.9239431     -3580.1814      1291.1926    
ec    15700  47.1           0.003          209.58757     -274.79646      1.7067531     -4545.9745      1291.1926    
ec    15800  47.4           0.003          288.36828     -274.84748      2.3482951     -3624.3146      1291.1926    
ec    15900  47.7           0.003          308.47909     -275.12705      2.5120653     -4000.3578      1291.1926    
ec    16000  48             0.003          260.14083     -275.28304      2.118428      -4262.829       1291.1926    
ec    16100  48.3           0.003          293.46941     -274.67531      2.3898356     -3588.5033      1291.1926    
ec    16200  48.6           0.003          272.48917     -275.35091      2.2189854     -4575.2766      1291.1926    
ec    16300  48.9           0.003          358.16795     -275.32017      2.916701      -3587.6271      1291.1926    
ec    16400  49.2           0.003          279.1355      -275.36222      2.273109      -4477.4632      1291.1926    
ec    16500  49.5           0.003          338.61634     -275.01576      2.7574846     -3484.3604      1291.1926    
ec    16600  49.8           0.003          286.35643     -275.13535      2.3319118     -4174.0885      1291.1926    
ec    16700  50.1           0.003          278.78571     -275.20754      2.2702606     -4284.2158      1291.1926    
ec    16800  50.4           0.003          330.19793     -275.15898      2.6889303     -3707.6817      1291.1926    
ec    16900  50.7           0.003          282.36656     -275.26813      2.2994208     -4272.0308      1291.1926    
ec    17000  51             0.003          332.40992     -275.0494       2.7069433     -3519.1453      1291.1926    
ec    17100  51.3           0.003          274.86525     -275.07409      2.2383347     -4434.5192      1291.1926    
ec    17200  51.6           0.003          313.95043     -274.69189      2.5566205     -3617.2156      1291.1926    
ec    17300  51.9           0.003          296.64013     -275.1299       2.415656      -3924.6369      1291.1926    
ec    17400  52.2           0.003          377.39704     -274.80334      3.0732909     -3417.2237      1291.1926    
ec    17500  52.5           0.003          298.37255     -275.16409      2.4297638     -4185.9954      1291.1926    
ec    17600  52.8           0.003          282.72334     -274.25513      2.3023262     -3759.0067      1291.1926    
ec    17700  53.1           0.003          333.7762      -275.36019      2.7180695     -3850.9192      1291.1926    
ec    17800  53.4           0.003          320.61678     -274.90433      2.6109072     -4271.9264      1291.1926    
ec    17900  53.7           0.003          282.03859     -275.10161      2.29675       -3995.9882      1291.1926    
ec    18000  54             0.003          274.567       -274.47588      2.2359059     -3654.6289      1291.1926    
ec    18100  54.3           0.003          303.42037     -275.01921      2.4708701     -4376.4352      1291.1926    
ec    18200  54.6           0.003          360.6298      -275.47877      2.9367488     -3810.0842      1291.1926    
ec    18300  54.9           0.003          272.60401     -275.14306      2.2199205     -4609.9406      1291.1926    
ec    18400  55.2           0.003          304.60076     -274.84548      2.4804825     -3881.4452      1291.1926    
ec    18500  55.5           0.003          248.19098     -275.24019      2.0211157     -4560.6668      1291.1926    
ec    18600  55.8           0.003          289.31171     -274.79547      2.3559779     -3889.5428      1291.1926    
ec    18700  56.1           0.003          281.07816     -275.51129      2.2889289     -4441.8018      1291.1926    
ec    18800  56.4           0.003          287.93858     -275.01218      2.3447959     -4285.9719      1291.1926    
ec    18900  56.7           0.003          311.09925     -275.03048      2.5334022     -4038.6365      1291.1926    
ec    19000  57             0.003          273.96058     -275.04348      2.2309676     -4602.0081      1291.1926    
ec    19100  57.3           0.003          332.13369     -275.23775      2.7046939     -3803.7417      1291.1926    
ec    19200  57.6           0.003          244.71834     -275.22129      1.9928367     -4332.9544      1291.1926    
ec    19300  57.9           0.003          317.87508     -274.83496      2.5885804     -3852.167       1291.1926    
ec    19400  58.2           0.003          239.47354     -275.11122      1.9501263     -4453.1833      1291.1926    
ec    19500  58.5           0.003          258.65382     -274.64932      2.1063187     -3975.7562      1291.1926    
ec    19600  58.8           0.003          303.96086     -274.90968      2.4752716     -3649.2618      1291.1926    
ec    19700  59.1           0.003          276.67926     -275.01433      2.2531069     -4235.4255      1291.1926    
ec    19800  59.4           0.003          324.48963     -275.11926      2.6424454     -3600.5893      1291.1926    
ec    19900  59.7           0.003          299.09664     -275.08746      2.4356603     -4159.6128      1291.1926    
Fix halt condition for fix-id myhalt met on step 20000 with value 60 (../fix_halt.cpp:240)
ec    20000  60             0.003          320.10613     -275.05181      2.6067488     -4127.6808      1291.1926    
Loop time of 0.377647 on 2 procs for 10000 steps with 64 atoms

Performance: 6863.549 ns/day, 0.003 hours/ns, 26479.740 timesteps/s, 1.695 Matom-step/s
99.8% CPU use with 2 MPI tasks x no OpenMP threads

MPI task timing breakdown:
Section |  min time  |  avg time  |  max time  |%varavg| %total
---------------------------------------------------------------
Pair    | 0.26759    | 0.26816    | 0.26874    |   0.1 | 71.01
Neigh   | 0          | 0          | 0          |   0.0 |  0.00
Comm    | 0.088865   | 0.089292   | 0.08972    |   0.1 | 23.64
Output  | 0.00082156 | 0.0014505  | 0.0020794  |   1.7 |  0.38
Modify  | 0.010885   | 0.011048   | 0.011212   |   0.2 |  2.93
Other   |            | 0.007692   |            |       |  2.04

Nlocal:             32 ave          33 max          31 min
Histogram: 1 0 0 0 0 0 0 0 0 1
Nghost:            444 ave         445 max         443 min
Histogram: 1 0 0 0 0 0 0 0 0 1
Neighs:              0 ave           0 max           0 min
Histogram: 2 0 0 0 0 0 0 0 0 0
FullNghs:         1098 ave        1130 max        1066 min
Histogram: 1 0 0 0 0 0 0 0 0 1

Total # of neighbors = 2196
Ave neighs/atom = 34.3125
Neighbor list builds = 0
Dangerous builds = 0

write_data cell.data_${temp}
write_data cell.data_300
System init for write_data ...
Total wall time: 0:00:00
