

units metal
timestep 0.001
boundary p p p

lattice         diamond 5.43
Lattice spacing in x,y,z = 5.43 5.43 5.43
region          box block 0 ${N} 0 ${N} 0 ${N}
region          box block 0 6 0 ${N} 0 ${N}
region          box block 0 6 0 6 0 ${N}
region          box block 0 6 0 6 0 6
create_box      1 box
Created orthogonal box = (0 0 0) to (32.58 32.58 32.58)
  1 by 1 by 2 MPI processor grid
create_atoms    1 box
Created 1728 atoms
  using lattice units in orthogonal box = (0 0 0) to (32.58 32.58 32.58)
  create_atoms CPU = 0.000 seconds

timestep ${dt}
timestep 1e-3

mass 1 28.0855
labelmap atom 1 Si

pair_style sw
pair_coeff * * Si.sw Si
Reading sw potential file Si.sw with DATE: 2007-06-11


velocity all create ${temp} 4928459 mom yes rot yes dist gaussian
velocity all create 400 4928459 mom yes rot yes dist gaussian

variable t equal time

compute 1 all vacf

thermo 100
thermo_style	custom step time dt temp pe ke press vol c_1[4]
thermo_modify	line one flush yes format 1 "ec %8lu" flush yes


fix NPT all npt temp ${temp} ${temp} ${tau_T} iso 0.0 0.0 1.0
fix NPT all npt temp 400 ${temp} ${tau_T} iso 0.0 0.0 1.0
fix NPT all npt temp 400 400 ${tau_T} iso 0.0 0.0 1.0
fix NPT all npt temp 400 400 0.1 iso 0.0 0.0 1.0

fix myhalt all halt 100 v_t >= 30.0 error continue

run 10000000

CITE-CITE-CITE-CITE-CITE-CITE-CITE-CITE-CITE-CITE-CITE-CITE-CITE

Your simulation uses code contributions which should be cited:

- Type Label Framework: https://doi.org/10.1021/acs.jpcb.3c08419

@Article{Gissinger24,
 author = {Jacob R. Gissinger, Ilia Nikiforov, Yaser Afshar, Brendon Waters, Moon-ki Choi, Daniel S. Karls, Alexander Stukowski, Wonpil Im, Hendrik Heinz, Axel Kohlmeyer, and Ellad B. Tadmor},
 title = {Type Label Framework for Bonded Force Fields in LAMMPS},
 journal = {J. Phys. Chem. B},
 year =    2024,
 volume =  128,
 number =  13,
 pages =   {3282--3297}
}

CITE-CITE-CITE-CITE-CITE-CITE-CITE-CITE-CITE-CITE-CITE-CITE-CITE

Neighbor list info ...
  update: every = 1 steps, delay = 0 steps, check = yes
  max neighbors/atom: 2000, page size: 100000
  master list distance cutoff = 5.77118
  ghost atom cutoff = 5.77118
  binsize = 2.88559, bins = 12 12 12
  1 neighbor lists, perpetual/occasional/extra = 1 0 0
  (1) pair sw, perpetual
      attributes: full, newton on
      pair build: full/bin/atomonly
      stencil: full/bin/3d
      bin: standard
Per MPI rank memory allocation (min/avg/max) = 3.67 | 3.67 | 3.67 Mbytes
   Step          Time            Dt            Temp          PotEng         KinEng         Press          Volume         c_1[4]    
ec        0  0              0.001          400           -7493.6418      89.292908      3290.4954      34582.25       35.504417    
ec      100  0.1            0.001          211.00723     -7443.7319      47.103623     -2285.3123      34777.635     -15.722913    
ec      200  0.2            0.001          197.84371     -7428.3679      44.165101      2620.3349      34619.395     -0.75568144   
ec      300  0.3            0.001          279.32301     -7431.6465      62.353909     -2185.7333      34790.857      10.827452    
ec      400  0.4            0.001          334.02509     -7427.3252      74.56518       1657.2548      34669.499     -8.5639538    
ec      500  0.5            0.001          337.64487     -7411.525       75.373231     -1880.7692      34806.897      0.51496989   
ec      600  0.6            0.001          375.61931     -7404.8099      83.850351      1197.6311      34713.969      0.32250817   
ec      700  0.7            0.001          389.31347     -7396.4049      86.90733      -1125.1338      34807.567     -0.94030521   
ec      800  0.8            0.001          412.56221     -7396.7607      92.097199      276.0289       34758.457      3.3049787    
ec      900  0.9            0.001          419.21529     -7401.469       93.58238      -293.53494      34779.751      2.0212959    
ec     1000  1              0.001          389.39849     -7402.7342      86.926308     -99.688346      34768.359     -1.1822753    
ec     1100  1.1            0.001          408.1541      -7411.2372      91.113167      565.35338      34746.813      3.6827307    
ec     1200  1.2            0.001          408.27793     -7409.7856      91.140809     -378.25635      34779.44      -0.90037216   
ec     1300  1.3            0.001          392.0063      -7400.8214      87.508455      939.38032      34737.278     -1.0644928    
ec     1400  1.4            0.001          443.05264     -7406.9645      98.903647     -444.52779      34799.118     -2.1674316    
ec     1500  1.5            0.001          410.85112     -7400.5857      91.715229      1520.2937      34730.784      1.9144671    
ec     1600  1.6            0.001          400.65077     -7402.8594      89.438182     -1065.7839      34807.258     -0.94721865   
ec     1700  1.7            0.001          372.74645     -7401.1337      83.209036      1170.339       34719.487      0.65720525   
ec     1800  1.8            0.001          366.55068     -7400.4309      81.825941     -1489.4399      34810.135      1.0303683    
ec     1900  1.9            0.001          407.96416     -7405.9202      91.070765      1355.8869      34723.027      2.465791     
ec     2000  2              0.001          413.09586     -7402.6977      92.216328     -777.37747      34802.97      -1.3079334    
ec     2100  2.1            0.001          398.99861     -7398.2121      89.069366      689.73683      34746.44      -2.7907354    
ec     2200  2.2            0.001          407.05737     -7403.1206      90.868342     -676.88165      34789.757      2.8926285    
ec     2300  2.3            0.001          363.83123     -7397.3437      81.21887       479.67172      34747.209     -2.9725304    
ec     2400  2.4            0.001          390.58201     -7405.2097      87.19051      -514.94208      34779.885      2.5862194    
ec     2500  2.5            0.001          419.98165     -7409.7925      93.753457      185.05441      34755.089      0.21357391   
ec     2600  2.6            0.001          397.69678     -7400.8666      88.778755      188.43598      34770.23      -1.2050424    
ec     2700  2.7            0.001          397.70835     -7398.7693      88.781339     -44.692901      34772.388      1.7887913    
ec     2800  2.8            0.001          417.52005     -7404.4424      93.203948     -16.843752      34766.661      3.6748988    
ec     2900  2.9            0.001          385.63895     -7400.7607      86.087058      89.254394      34767.24      -2.098986     
ec     3000  3              0.001          389.51295     -7403.8146      86.951861      176.17622      34761.811     -0.046589026  
ec     3100  3.1            0.001          435.78223     -7413.7417      97.280657     -60.244275      34767.938      0.32309233   
ec     3200  3.2            0.001          420.6139      -7407.3201      93.894596      472.62499      34755.514     -0.026611408  
ec     3300  3.3            0.001          428.42302     -7406.4526      95.637843     -310.39687      34781.567     -0.78385773   
ec     3400  3.4            0.001          394.04914     -7399.057       87.964484      314.00331      34757.407     -2.3469466    
ec     3500  3.5            0.001          389.52433     -7400.3618      86.954401     -423.0308       34785.162      5.2047076    
ec     3600  3.6            0.001          400.59597     -7405.5999      89.425949      482.95573      34747.421     -3.0589002    
ec     3700  3.7            0.001          407.70436     -7407.5574      91.012771     -461.77122      34782.23      -0.5994337    
ec     3800  3.8            0.001          426.03732     -7409.5178      95.105279      1047.9765      34738.243      0.94525385   
ec     3900  3.9            0.001          413.3267      -7404.0082      92.267857     -386.60977      34791.525     -1.0338615    
ec     4000  4              0.001          380.73917     -7395.9783      84.993268      642.45492      34746.966      0.25439214   
ec     4100  4.1            0.001          421.24392     -7406.4919      94.035237     -688.37682      34789.915      2.497007     
ec     4200  4.2            0.001          413.62669     -7407.5858      92.334826      426.27541      34747.326     -1.1402065    
ec     4300  4.3            0.001          408.89251     -7407.5981      91.278004     -337.4196       34777.459     -0.23808837   
ec     4400  4.4            0.001          393.2669      -7402.8545      87.789862      385.93631      34751.854      1.4844405    
ec     4500  4.5            0.001          398.76584     -7401.7457      89.017404     -494.53231      34780.677      0.071259251  
ec     4600  4.6            0.001          357.44193     -7390.924       79.792573      322.64249      34759.911     -4.2785167    
ec     4700  4.7            0.001          421.68166     -7405.9778      94.132955     -318.35314      34773.858      2.7413364    
ec     4800  4.8            0.001          361.24856     -7396.0587      80.642337     -443.97861      34772.968     -0.70462023   
ec     4900  4.9            0.001          374.43503     -7399.6637      83.585982      838.54382      34746.982     -2.3479357    
ec     5000  5              0.001          394.20508     -7402.9002      87.999294     -364.73111      34783.181      2.629234     
ec     5100  5.1            0.001          438.4624      -7410.0859      97.878958      872.33254      34744.749     -1.1099268    
ec     5200  5.2            0.001          435.47525     -7407.8506      97.21213      -151.75485      34781.703     -0.82872064   
ec     5300  5.3            0.001          410.11062     -7398.5795      91.549925      898.74981      34748.054     -0.2653004    
ec     5400  5.4            0.001          397.94477     -7396.22        88.834116     -619.49374      34800.972     -0.96325796   
ec     5500  5.5            0.001          408.64936     -7403.2251      91.223724      938.20756      34731.889      0.063747941  
ec     5600  5.6            0.001          394.26737     -7402.7926      88.013199     -1347.788       34805.153      1.6776004    
ec     5700  5.7            0.001          384.13817     -7401.4304      85.752037      1216.6896      34725.197     -1.2613962    
ec     5800  5.8            0.001          389.37728     -7402.0115      86.921574     -886.12802      34799.823     -1.4074546    
ec     5900  5.9            0.001          390.74786     -7398.6613      87.227533      855.13248      34733.016      3.1721516    
ec     6000  6              0.001          417.3082      -7402.7748      93.156656     -1065.9656      34807.024     -0.48618293   
ec     6100  6.1            0.001          416.31689     -7404.3143      92.935364      1103.8786      34730.451     -3.4895011    
ec     6200  6.2            0.001          393.43179     -7401.3356      87.826671     -1083.7778      34802.641      4.6627545    
ec     6300  6.3            0.001          396.58225     -7402.3648      88.529955      941.22132      34734.282     -3.4797103    
ec     6400  6.4            0.001          415.3175      -7406.9247      92.712269     -564.07572      34786.584      2.0843676    
ec     6500  6.5            0.001          420.40905     -7407.3827      93.848868      648.39304      34751.705     -2.5085909    
ec     6600  6.6            0.001          414.05999     -7403.6699      92.431551      60.73117       34765.913      2.6006662    
ec     6700  6.7            0.001          389.86006     -7396.8327      87.029347     -701.15526      34788.81      -0.63046895   
ec     6800  6.8            0.001          415.70103     -7404.4497      92.797886      1071.5481      34737.094     -1.3126078    
ec     6900  6.9            0.001          403.38633     -7405.5124      90.048847     -1008.1967      34802.139     -0.37610496   
ec     7000  7              0.001          403.2781      -7405.2633      90.024685      1463.5034      34716.748     -1.2221505    
ec     7100  7.1            0.001          417.0565      -7406.4463      93.100469     -1433.389       34820.824     -1.1413379    
ec     7200  7.2            0.001          405.06327     -7401.4236      90.423193      1748.0764      34704.422      0.52180462   
ec     7300  7.3            0.001          426.21545     -7403.2865      95.145043     -2038.5023      34844.251     -2.2232247    
ec     7400  7.4            0.001          421.15251     -7401.6846      94.014832      2278.7037      34693.777      1.2675727    
ec     7500  7.5            0.001          417.49581     -7405.631       93.198537     -2077.8935      34838.567     -1.1116971    
ec     7600  7.6            0.001          396.90312     -7403.7828      88.601585      1869.5407      34698.383      2.6891025    
ec     7700  7.7            0.001          385.00239     -7400.7659      85.944958     -1666.821       34827.177     -3.4072985    
ec     7800  7.8            0.001          377.55179     -7398.1636      84.281743      1518.3076      34709.535      2.5345494    
ec     7900  7.9            0.001          393.65736     -7398.4076      87.877027     -1785.6043      34823.807      0.70573517   
ec     8000  8              0.001          421.66383     -7402.8928      94.128973      1483.2893      34724.541     -2.8488833    
ec     8100  8.1            0.001          381.10567     -7398.1587      85.075084     -1036.2652      34803.458     -0.44653983   
ec     8200  8.2            0.001          392.87054     -7402.7827      87.701382      551.29352      34741.382      1.9193382    
ec     8300  8.3            0.001          384.6554      -7400.8829      85.867499     -792.98375      34783.955     -1.0496148    
ec     8400  8.4            0.001          405.52423     -7403.5123      90.526094      160.85626      34762.433      2.9030697    
ec     8500  8.5            0.001          410.1457      -7402.9567      91.557756      358.20862      34757.564     -1.9288505    
ec     8600  8.6            0.001          419.6098      -7402.4818      93.670449     -616.88359      34795.509      2.227841     
ec     8700  8.7            0.001          414.38362     -7402.2055      92.503796      1331.0278      34729.728     -1.8476455    
ec     8800  8.8            0.001          408.02764     -7405.3038      91.084937     -1087.8635      34808.574     -0.40492251   
ec     8900  8.9            0.001          377.54159     -7399.949       84.279467      1469.2877      34713.563      0.85786471   
ec     9000  9              0.001          408.51667     -7406.5343      91.194104     -1455.0947      34816.394     -1.3555221    
ec     9100  9.1            0.001          397.27708     -7400.6361      88.685065      1853.702       34707.4        5.1432649    
ec     9200  9.2            0.001          407.63936     -7401.0106      90.99826      -1929.2277      34836.599     -5.7159798    
ec     9300  9.3            0.001          396.30395     -7399.5188      88.467832      2066.6339      34698.798      1.6347966    
ec     9400  9.4            0.001          402.52051     -7402.4002      89.855566     -1946.8134      34830.632      1.8646324    
ec     9500  9.5            0.001          413.56002     -7406.0875      92.319942      1642.3416      34707.042     -0.97473623   
ec     9600  9.6            0.001          407.21987     -7405.5911      90.904616     -1465.0604      34816.526     -4.9170029    
ec     9700  9.7            0.001          373.39773     -7399.5418      83.354424      1265.316       34715.517      1.5541357    
ec     9800  9.8            0.001          374.68198     -7399.6564      83.641108     -1511.6912      34813.118     -1.9559531    
ec     9900  9.9            0.001          396.9441      -7402.4699      88.610732      955.65967      34727.253      0.19246372   
ec    10000  10             0.001          415.35887     -7403.4024      92.721503     -802.5244       34797.52      -0.35130227   
ec    10100  10.1           0.001          412.76397     -7403.1481      92.142238      856.96941      34745.253      0.36664022   
ec    10200  10.2           0.001          405.0743      -7405.0887      90.425655      20.839385      34770.666      4.1657343    
ec    10300  10.3           0.001          406.25335     -7406.808       90.688857      187.00711      34760.733     -4.967051     
ec    10400  10.4           0.001          417.80424     -7408.5094      93.267389      457.53063      34748.18       2.7453668    
ec    10500  10.5           0.001          404.42301     -7404.2475      90.280266     -745.2641       34792.066     -2.4412648    
ec    10600  10.6           0.001          410.07582     -7403.8263      91.542156      1419.6949      34723.656      0.303538     
ec    10700  10.7           0.001          440.29114     -7408.2161      98.28719      -963.9435       34810.097      0.59987458   
ec    10800  10.8           0.001          410.95549     -7400.3824      91.738527      1373.0271      34720.351     -1.3969624    
ec    10900  10.9           0.001          407.64767     -7402.577       91.000115     -1407.6788      34820.362      1.1265386    
ec    11000  11             0.001          395.77762     -7403.7249      88.350336      1707.8121      34703.741      0.050712663  
ec    11100  11.1           0.001          387.93177     -7402.6491      86.598889     -2080.1475      34829.107     -0.8986971    
ec    11200  11.2           0.001          410.11172     -7405.2199      91.550171      1843.3718      34702.487     -0.63625717   
ec    11300  11.3           0.001          377.418       -7395.6046      84.251878     -2092.8879      34829.503      1.967602     
ec    11400  11.4           0.001          407.94623     -7399.7099      91.066763      1226.2467      34721.427     -1.8389391    
ec    11500  11.5           0.001          422.28124     -7405.7421      94.266801     -1198.1074      34810.177     -1.7613855    
ec    11600  11.6           0.001          412.39678     -7407.3851      92.06027       1530.5385      34718.653      0.085934375  
ec    11700  11.7           0.001          407.10495     -7407.0413      90.878963     -752.18564      34795.341      3.0007214    
ec    11800  11.8           0.001          403.10457     -7404.3056      89.985948      1011.2157      34733.194     -2.2260719    
ec    11900  11.9           0.001          395.35911     -7400.482       88.256912     -779.61876      34791.725      1.5373891    
ec    12000  12             0.001          401.76297     -7401.5219      89.686461      362.1929       34754.927      1.08337      
ec    12100  12.1           0.001          414.91474     -7406.0637      92.62236      -13.987466      34768.58      -1.30457      
ec    12200  12.2           0.001          381.38848     -7403.222       85.138217     -106.95941      34768.335      1.2808074    
ec    12300  12.3           0.001          386.8666      -7403.5389      86.36111       637.72243      34743.829     -0.74859125   
ec    12400  12.4           0.001          397.17683     -7402.6116      88.662686     -734.5995       34791.606     -1.04909      
ec    12500  12.5           0.001          400.3944      -7401.8057      89.380951      877.89948      34736.41       1.6390692    
ec    12600  12.6           0.001          405.95703     -7403.3273      90.62271      -1061.9277      34805.617     -0.22523991   
ec    12700  12.7           0.001          397.7818      -7402.9005      88.797735      1256.5202      34720.783     -1.4071141    
ec    12800  12.8           0.001          407.55523     -7408.2264      90.97948      -1463.0223      34816.164      0.88013096   
ec    12900  12.9           0.001          391.77199     -7407.2254      87.456151      1907.075       34697.91      -1.0734092    
ec    13000  13             0.001          387.06897     -7402.9908      86.406284     -1706.4907      34825.106      2.000828     
ec    13100  13.1           0.001          405.3171      -7404.3634      90.479856      2059.0979      34701.871     -2.7579153    
ec    13200  13.2           0.001          402.50167     -7402.667       89.851362     -1776.709       34826.855      1.1477705    
ec    13300  13.3           0.001          404.96627     -7402.6424      90.40154       1535.8991      34711.28       0.71632254   
ec    13400  13.4           0.001          387.08178     -7400.354       86.409144     -1773.3077      34822.559     -1.036635     
ec    13500  13.5           0.001          384.9074      -7403.5651      85.923753      1325.0082      34717.676      0.27238454   
ec    13600  13.6           0.001          386.15933     -7404.1959      86.203224     -1088.4091      34798.661      1.5519241    
ec    13700  13.7           0.001          407.73445     -7405.5161      91.019488      753.30036      34740.448     -1.4259233    
ec    13800  13.8           0.001          410.63745     -7404.5949      91.667531     -222.65196      34779.209     -0.034205007  
ec    13900  13.9           0.001          416.73598     -7405.8349      93.028918      362.88768      34760.185      0.33813216   
ec    14000  14             0.001          420.79543     -7407.8064      93.935118      221.57085      34759.133      0.60255575   
ec    14100  14.1           0.001          396.28146     -7404.2549      88.46281      -361.33324      34779.679     -1.6605974    
ec    14200  14.2           0.001          390.56038     -7405.0753      87.18568       959.07857      34736.012      2.839519     
ec    14300  14.3           0.001          397.69371     -7407.124       88.778069     -992.05754      34793.924     -1.2648648    
ec    14400  14.4           0.001          397.3927      -7402.5129      88.710875      1149.1835      34728.235      0.65154639   
ec    14500  14.5           0.001          396.21915     -7400.269       88.448901     -978.22932      34808.365      0.4476538    
ec    14600  14.6           0.001          421.64276     -7406.8297      94.124272      1205.5042      34723.734      1.240899     
ec    14700  14.7           0.001          405.86566     -7405.3559      90.602313     -1396.9042      34814.613     -1.1334345    
ec    14800  14.8           0.001          395.65907     -7406.519       88.323872      1641.9075      34708.065      1.1261078    
ec    14900  14.9           0.001          378.12178     -7403.8604      84.408984     -1586.7432      34817.37      -0.59550131   
ec    15000  15             0.001          409.08768     -7405.3713      91.321571      1598.4403      34709.301      2.2067801    
ec    15100  15.1           0.001          401.23313     -7401.496       89.568183     -1750.6636      34826.393     -2.0310065    
ec    15200  15.2           0.001          399.78337     -7401.2257      89.24455       1519.8507      34716.636      0.020185278  
ec    15300  15.3           0.001          396.25379     -7402.7185      88.456634     -1204.7342      34811.593      0.10174516   
ec    15400  15.4           0.001          401.6631      -7406.0692      89.664166      1220.7267      34723.875     -1.206625     
ec    15500  15.5           0.001          393.8492      -7404.9835      87.919851     -865.64417      34793.361      1.4458954    
ec    15600  15.6           0.001          397.35824     -7401.4511      88.703183      648.91833      34745.455     -2.2568282    
ec    15700  15.7           0.001          394.82507     -7398.7626      88.137698     -531.41427      34784.899      2.6515682    
ec    15800  15.8           0.001          408.94816     -7403.1256      91.290427      188.22941      34764.9       -2.2429396    
ec    15900  15.9           0.001          421.99022     -7408.8259      94.201836      703.92778      34747.867     -1.1534634    
ec    16000  16             0.001          397.53448     -7404.4723      88.742523     -689.82353      34792.321      2.338709     
ec    16100  16.1           0.001          419.1929      -7408.0104      93.577383      1624.6251      34720.668      1.1762159    
ec    16200  16.2           0.001          392.36444     -7401.5887      87.588404     -1393.6879      34811.051     -2.211718     
ec    16300  16.3           0.001          385.04435     -7399.8964      85.954324      1086.4573      34723.311      2.8373947    
ec    16400  16.4           0.001          396.61795     -7402.0427      88.537925     -1317.8243      34813.013     -1.1992442    
ec    16500  16.5           0.001          396.22231     -7402.4159      88.449607      1366.1384      34714.276      1.3602192    
ec    16600  16.6           0.001          395.90928     -7402.3552      88.379728     -1772.4114      34827.138     -1.0489258    
ec    16700  16.7           0.001          400.05763     -7403.5377      89.305772      2083.887       34698.078      0.88406379   
ec    16800  16.8           0.001          405.93871     -7404.4589      90.618619     -1593.0338      34825.254      0.11392237   
ec    16900  16.9           0.001          395.02806     -7401.0055      88.183011      1591.7003      34711.35       0.51729169   
ec    17000  17             0.001          418.33924     -7404.8333      93.386818     -1359.0811      34817.138      0.023481501  
ec    17100  17.1           0.001          409.82944     -7402.6629      91.487155      1217.1911      34722.184     -1.9836208    
ec    17200  17.2           0.001          400.97303     -7403.317       89.510119     -1227.6497      34811.78       1.3292191    
ec    17300  17.3           0.001          388.25658     -7403.3036      86.671399      1296.1757      34723.471     -0.3064569    
ec    17400  17.4           0.001          388.81333     -7403.2037      86.795682     -828.16852      34791.747      0.48790952   
ec    17500  17.5           0.001          406.82813     -7403.643       90.817166      617.58908      34748.629     -1.857054     
ec    17600  17.6           0.001          398.11327     -7400.6666      88.87173      -225.21865      34775.803      0.65888811   
ec    17700  17.7           0.001          409.42291     -7403.8364      91.396405     -43.79695       34771.56       0.82423123   
ec    17800  17.8           0.001          417.44762     -7407.0238      93.187781      627.49595      34749.006     -1.7668855    
ec    17900  17.9           0.001          401.54717     -7405.6865      89.638286     -786.09088      34791.793      0.79129844   
ec    18000  18             0.001          415.80405     -7409.7795      92.820882      1435.0493      34722.731      0.24986719   
ec    18100  18.1           0.001          399.70976     -7405.1039      89.228117     -986.34611      34803.253     -1.0469314    
ec    18200  18.2           0.001          404.14266     -7402.4807      90.217684      1279.675       34722.266     -1.4541855    
ec    18300  18.3           0.001          398.38549     -7400.1027      88.932496     -1719.0945      34823.148      1.4352282    
ec    18400  18.4           0.001          383.77222     -7398.1931      85.670344      1487.0852      34711.987      0.083529642  
ec    18500  18.5           0.001          386.73618     -7403.2194      86.331995     -1928.3908      34827.082     -0.48943731   
ec    18600  18.6           0.001          392.71009     -7404.6972      87.665565      1650.8393      34703.212     -0.48855486   
ec    18700  18.7           0.001          404.36795     -7405.322       90.267975     -1593.1179      34820.629      0.10958455   
ec    18800  18.8           0.001          386.40036     -7399.5268      86.25703       1289.7933      34717.391     -0.44275794   
ec    18900  18.9           0.001          404.30528     -7402.3059      90.253987     -1218.9771      34815.03       0.0072666925 
ec    19000  19             0.001          419.87927     -7406.4471      93.730604      1356.3083      34722.763      0.91506239   
ec    19100  19.1           0.001          414.24456     -7405.6568      92.472753     -807.12983      34797.916     -2.0463239    
ec    19200  19.2           0.001          411.59949     -7405.532       91.882288      967.95444      34740.055      2.2571352    
ec    19300  19.3           0.001          406.84629     -7405.1503      90.821222     -233.42834      34777.693     -0.99223755   
ec    19400  19.4           0.001          392.96639     -7403.3321      87.72278       110.20937      34758.998     -2.2842455    
ec    19500  19.5           0.001          394.44902     -7404.8311      88.053751     -42.573311      34760.683      3.5811936    
ec    19600  19.6           0.001          386.59036     -7401.3039      86.299444     -178.06453      34773.756     -2.5530764    
ec    19700  19.7           0.001          391.34587     -7399.4222      87.361026      545.08166      34748.244      0.52136129   
ec    19800  19.8           0.001          404.38398     -7400.5862      90.271554     -826.66646      34796.174     -0.78579557   
ec    19900  19.9           0.001          408.18369     -7403.444       91.119773      819.34526      34736.083     -1.4157487    
ec    20000  20             0.001          398.94574     -7403.8805      89.057562     -995.31771      34800.417      0.92846424   
ec    20100  20.1           0.001          387.46751     -7401.2955      86.495252      1145.2891      34728.382     -0.26756823   
ec    20200  20.2           0.001          415.05036     -7406.5857      92.652634     -1029.5695      34802.463      0.9549443    
ec    20300  20.3           0.001          410.66505     -7404.0048      91.673692      1018.9593      34730.387     -1.4145663    
ec    20400  20.4           0.001          415.29943     -7403.562       92.708235     -964.69132      34804.32       1.671325     
ec    20500  20.5           0.001          402.79295     -7399.7417      89.916385      1341.3479      34729.757     -2.4871137    
ec    20600  20.6           0.001          399.77261     -7402.2585      89.242147     -1005.8735      34802.732      1.7426288    
ec    20700  20.7           0.001          404.60803     -7405.9639      90.321568      928.41332      34730.43      -1.0193823    
ec    20800  20.8           0.001          379.35661     -7401.0317      84.684638     -911.80957      34794.202      0.94393433   
ec    20900  20.9           0.001          405.00468     -7404.0287      90.410114      658.4144       34744.647     -0.73541196   
ec    21000  21             0.001          422.6103      -7403.4169      94.340256     -210.45102      34782.789      0.92475318   
ec    21100  21.1           0.001          419.69739     -7403.9971      93.690001      495.63486      34756.772      0.2451451    
ec    21200  21.2           0.001          414.47389     -7405.5173      92.523947      3.735566       34771.127      0.87531792   
ec    21300  21.3           0.001          411.90739     -7407.1762      91.951022      180.8148       34759.022     -3.8586918    
ec    21400  21.4           0.001          385.10124     -7401.4983      85.967025     -305.92313      34768.176      3.9836297    
ec    21500  21.5           0.001          387.11056     -7400.0657      86.415569     -567.03858      34776.309     -3.1748239    
ec    21600  21.6           0.001          416.51894     -7401.3993      92.980468      397.65733      34755.214     -0.0057599092 
ec    21700  21.7           0.001          414.81442     -7400.9662      92.599964     -722.03546      34794.488     -0.12211991   
ec    21800  21.8           0.001          396.37601     -7399.477       88.483916      967.84218      34735.915     -0.15456243   
ec    21900  21.9           0.001          406.2788      -7403.9841      90.694539     -715.8922       34796.598      0.76098824   
ec    22000  22             0.001          385.56417     -7401.7307      86.070365      870.50966      34729.075      0.2417583    
ec    22100  22.1           0.001          407.80411     -7406.1027      91.035037     -1298.9424      34806.719      1.0324682    
ec    22200  22.2           0.001          406.91203     -7403.5573      90.835896      1331.2831      34718.076     -2.0060302    
ec    22300  22.3           0.001          405.37754     -7398.4239      90.493349     -1637.535       34824.634      1.4063876    
ec    22400  22.4           0.001          416.06479     -7401.3774      92.879088      1761.3057      34712.97       0.043801555  
ec    22500  22.5           0.001          407.8937      -7402.106       91.055036     -1524.2242      34819.237      1.1686867    
ec    22600  22.6           0.001          402.62695     -7403.5173      89.879328      1219.0224      34722.857     -3.1363584    
ec    22700  22.7           0.001          378.98312     -7400.1663      84.601262     -1108.5942      34799.351      2.0388269    
ec    22800  22.8           0.001          383.41807     -7400.8505      85.591287      574.9587       34740.487     -0.7226927    
ec    22900  22.9           0.001          400.9358      -7401.2729      89.50181      -554.8689       34785.329     -0.60269274   
ec    23000  23             0.001          413.02862     -7400.2986      92.201316      141.55449      34763.306      1.5435255    
ec    23100  23.1           0.001          413.2782      -7402.1113      92.257032      131.10345      34765.794     -2.1454811    
ec    23200  23.2           0.001          413.34271     -7404.2751      92.271432     -68.763359      34777.842      0.68141171   
ec    23300  23.3           0.001          410.88419     -7405.3848      91.722611      1155.5356      34731.008     -0.68223066   
ec    23400  23.4           0.001          397.99381     -7404.0386      88.845061     -1585.2921      34814.613      0.91946173   
ec    23500  23.5           0.001          405.04277     -7405.09        90.418618      1774.4194      34700.932     -1.4655197    
ec    23600  23.6           0.001          382.4352      -7396.4154      85.371878     -2367.994       34846.721      0.20782379   
ec    23700  23.7           0.001          400.00629     -7398.4984      89.294311      2223.5809      34686.663     -0.12013259   
ec    23800  23.8           0.001          416.71603     -7404.7853      93.024466     -2693.328       34862.269     -0.37704283   
ec    23900  23.9           0.001          386.05317     -7400.6561      86.179526      3079.3531      34658.592      0.81020977   
ec    24000  24             0.001          385.03351     -7400.9877      85.951905     -3472.3731      34882.627     -1.7672605    
ec    24100  24.1           0.001          402.12995     -7403.9917      89.768382      3317.5526      34650.318     -0.31126125   
ec    24200  24.2           0.001          396.52117     -7400.0079      88.516321     -3190.421       34876.544      1.3244111    
ec    24300  24.3           0.001          421.7473      -7401.779       94.147608      2788.7841      34678.702     -1.4327216    
ec    24400  24.4           0.001          419.83126     -7403.3104      93.719885     -2179.024       34848.076     -0.93954213   
ec    24500  24.5           0.001          413.30917     -7404.2117      92.263945      1933.145       34702.582      1.0113602    
ec    24600  24.6           0.001          408.57521     -7404.7158      91.207172     -1319.8716      34814.212     -1.0418881    
ec    24700  24.7           0.001          404.56663     -7405.34        90.312328      987.26713      34734.656      1.0470331    
ec    24800  24.8           0.001          398.43144     -7404.9023      88.942756     -140.52233      34772.599     -1.1636456    
ec    24900  24.9           0.001          398.20183     -7402.5991      88.891498     -99.082247      34768.741      1.5333854    
ec    25000  25             0.001          402.6355      -7400.1945      89.881237      164.96991      34760.415     -0.22854922   
ec    25100  25.1           0.001          405.86948     -7401.3119      90.603166     -690.44182      34787.878     -0.028706438  
ec    25200  25.2           0.001          384.42994     -7400.1941      85.817168      547.5024       34743.929      1.3614426    
ec    25300  25.3           0.001          394.77303     -7404.2228      88.126079     -890.9964       34794.319     -1.5255358    
ec    25400  25.4           0.001          413.45295     -7407.1815      92.29604       1065.3312      34731.82       0.6568066    
ec    25500  25.5           0.001          405.50475     -7403.9005      90.521746     -878.72753      34797.247     -0.012344154  
ec    25600  25.6           0.001          408.66937     -7403.0712      91.228192      855.12545      34736.739      1.1720572    
ec    25700  25.7           0.001          402.73695     -7399.6894      89.903884     -947.11448      34803.3       -1.3391723    
ec    25800  25.8           0.001          408.1543      -7399.738       91.113211      940.98706      34738.732      0.3308863    
ec    25900  25.9           0.001          397.23903     -7401.0048      88.676571     -1145.4237      34803.62      -0.85663266   
ec    26000  26             0.001          402.27888     -7404.76        89.801627      1038.6414      34731.203      0.013838506  
ec    26100  26.1           0.001          378.15543     -7399.9958      84.416496     -766.8784       34794.524     -1.3787194    
ec    26200  26.2           0.001          404.63494     -7404.4695      90.327577      905.69638      34736.256      0.84182664   
ec    26300  26.3           0.001          421.03925     -7403.8419      93.989547     -674.66267      34795.653      0.89299407   
ec    26400  26.4           0.001          412.46249     -7401.3929      92.074939      686.5475       34748.882     -1.3846339    
ec    26500  26.5           0.001          397.48125     -7400.2564      88.730643     -455.7958       34783.997      1.0184533    
ec    26600  26.6           0.001          400.45652     -7402.4666      89.394818      139.16304      34760.857     -0.54927086   
ec    26700  26.7           0.001          399.44684     -7403.7784      89.169426     -130.33329      34769.392      1.9164795    
ec    26800  26.8           0.001          398.65583     -7404.6734      88.992845     -46.759582      34765.806     -1.962344     
ec    26900  26.9           0.001          398.11946     -7403.4282      88.87311       194.291        34761.75       1.1857895    
ec    27000  27             0.001          409.35187     -7402.0608      91.380547     -72.427436      34777.184      0.34013733   
ec    27100  27.1           0.001          399.82249     -7399.7422      89.253283      394.89913      34754.093     -1.3392985    
ec    27200  27.2           0.001          392.22764     -7401.0834      87.557867     -933.10768      34794.633     -0.48215394   
ec    27300  27.3           0.001          400.44639     -7405.1611      89.392557      889.51662      34735.062      0.61583139   
ec    27400  27.4           0.001          399.31736     -7404.9731      89.140522     -1043.201       34799.343      0.61360455   
ec    27500  27.5           0.001          397.96488     -7403.1689      88.838604      1154.0194      34728.811     -2.5704499    
ec    27600  27.6           0.001          407.23383     -7404.3338      90.907732     -1089.4835      34806.596      1.8078326    
ec    27700  27.7           0.001          409.31969     -7404.7837      91.373363      1230.4007      34723.784     -1.2998329    
ec    27800  27.8           0.001          394.39789     -7401.5409      88.042337     -1435.1987      34814.629      2.4490829    
ec    27900  27.9           0.001          399.89652     -7403.0525      89.269808      1187.5639      34722.685     -2.2836452    
ec    28000  28             0.001          400.82746     -7403.3248      89.477624     -1252.2054      34809.903      1.717895     
ec    28100  28.1           0.001          409.03185     -7405.2191      91.309108      1228.4086      34724.419     -1.0122902    
ec    28200  28.2           0.001          412.15666     -7405.5163      92.006668     -949.36174      34803.226     -0.19975784   
ec    28300  28.3           0.001          398.92747     -7402.578       89.053485      927.83326      34734.932     -0.3856368    
ec    28400  28.4           0.001          398.87637     -7402.4925      89.042078     -635.16164      34790.062      0.59509944   
ec    28500  28.5           0.001          406.79291     -7404.6076      90.809305      427.05306      34752.004      0.19820983   
ec    28600  28.6           0.001          401.40125     -7404.5545      89.605713     -190.652        34770.876      0.1683867    
ec    28700  28.7           0.001          407.43167     -7406.4984      90.951896     -3.5780219      34769.361      0.2543124    
ec    28800  28.8           0.001          382.44934     -7400.8792      85.375034      350.62836      34748.027     -1.1811507    
ec    28900  28.9           0.001          404.52281     -7402.4505      90.302546     -972.15286      34800.045      0.31860246   
ec    29000  29             0.001          397.06559     -7399.0652      88.637853      1345.3445      34721.717      0.80093775   
ec    29100  29.1           0.001          396.46325     -7400.9081      88.503392     -2110.963       34834.919     -1.3434443    
ec    29200  29.2           0.001          389.61481     -7403.6542      86.974599      2315.9766      34683.946      1.4078761    
ec    29300  29.3           0.001          385.93239     -7402.5858      86.152564     -2540.1345      34854.644     -1.4288637    
ec    29400  29.4           0.001          402.07264     -7404.0884      89.755589      2927.968       34668.661      0.97654657   
ec    29500  29.5           0.001          392.40245     -7400.1459      87.596891     -2983.6297      34869.149     -0.56320282   
ec    29600  29.6           0.001          417.50956     -7403.4502      93.201608      3167.9194      34665.663      1.4026051    
ec    29700  29.7           0.001          412.60327     -7403.3495      92.106366     -2815.5163      34868.933      0.18109055   
ec    29800  29.8           0.001          408.7106      -7406.7122      91.237394      2910.8699      34666.739     -0.86155476   
ec    29900  29.9           0.001          389.32522     -7403.6612      86.909953     -2357.2444      34849.794      0.5901505    
Fix halt condition for fix-id myhalt met on step 30000 with value 30 (../fix_halt.cpp:240)
ec    30000  30             0.001          379.61646     -7399.7727      84.742644      2043.0832      34693.008     -0.52657462   
Loop time of 27.552 on 2 procs for 30000 steps with 1728 atoms

Performance: 94.077 ns/day, 0.255 hours/ns, 1088.849 timesteps/s, 1.882 Matom-step/s
99.1% CPU use with 2 MPI tasks x no OpenMP threads

MPI task timing breakdown:
Section |  min time  |  avg time  |  max time  |%varavg| %total
---------------------------------------------------------------
Pair    | 25.359     | 25.53      | 25.702     |   3.4 | 92.66
Neigh   | 0          | 0          | 0          |   0.0 |  0.00
Comm    | 0.9811     | 1.1508     | 1.3204     |  15.8 |  4.18
Output  | 0.0054012  | 0.0082771  | 0.011153   |   3.2 |  0.03
Modify  | 0.71901    | 0.7207     | 0.72238    |   0.2 |  2.62
Other   |            | 0.142      |            |       |  0.52

Nlocal:            864 ave         864 max         864 min
Histogram: 2 0 0 0 0 0 0 0 0 0
Nghost:           2006 ave        2006 max        2006 min
Histogram: 2 0 0 0 0 0 0 0 0 0
Neighs:              0 ave           0 max           0 min
Histogram: 2 0 0 0 0 0 0 0 0 0
FullNghs:        29376 ave       29376 max       29376 min
Histogram: 2 0 0 0 0 0 0 0 0 0

Total # of neighbors = 58752
Ave neighs/atom = 34
Neighbor list builds = 0
Dangerous builds = 0

unfix myhalt

fix myhalt all halt 100 v_t >= 60.0 error continue

unfix NPT

fix NVT all nvt temp ${temp} ${temp} ${tau_T}
fix NVT all nvt temp 400 ${temp} ${tau_T}
fix NVT all nvt temp 400 400 ${tau_T}
fix NVT all nvt temp 400 400 0.1

run 10000000
Per MPI rank memory allocation (min/avg/max) = 3.67 | 3.67 | 3.67 Mbytes
   Step          Time            Dt            Temp          PotEng         KinEng         Press          Volume         c_1[4]    
ec    30000  30             0.001          379.61646     -7399.7727      84.742644      2043.0832      34693.008     -0.52657462   
ec    30100  30.1           0.001          404.69692     -7405.1609      90.341412      2095.5945      34693.008     -0.1990677    
ec    30200  30.2           0.001          397.06148     -7401.5443      88.636935      2053.9979      34693.008      0.4267006    
ec    30300  30.3           0.001          412.4992      -7401.2972      92.083134      2269.1936      34693.008      0.082132903  
ec    30400  30.4           0.001          384.42936     -7396.8701      85.817038      2100.2258      34693.008     -0.15260427   
ec    30500  30.5           0.001          400.30789     -7403.5085      89.361639      2167.3639      34693.008     -0.066586913  
ec    30600  30.6           0.001          414.63237     -7407.5444      92.559326      2251.0509      34693.008     -0.53302383   
ec    30700  30.7           0.001          412.11225     -7406.5106      91.996753      2220.8655      34693.008      0.66382828   
ec    30800  30.8           0.001          401.29435     -7402.6773      89.581849      2339.5102      34693.008     -0.13109604   
ec    30900  30.9           0.001          409.60104     -7403.5286      91.43617       2119.8248      34693.008      0.20082774   
ec    31000  31             0.001          415.27063     -7401.8651      92.701806      2189.6861      34693.008      0.2892358    
ec    31100  31.1           0.001          415.12144     -7402.6838      92.668502      2206.1539      34693.008      0.71895216   
ec    31200  31.2           0.001          403.2093      -7404.1443      90.009328      2296.0317      34693.008      0.33194572   
ec    31300  31.3           0.001          391.04813     -7402.7791      87.294562      2205.91        34693.008      0.72149917   
ec    31400  31.4           0.001          385.53015     -7401.0372      86.062771      2087.7516      34693.008     -0.19069684   
ec    31500  31.5           0.001          398.40299     -7401.5128      88.936404      2031.5582      34693.008     -0.040830562  
ec    31600  31.6           0.001          400.86391     -7397.795       89.485761      2182.0391      34693.008     -0.21180014   
ec    31700  31.7           0.001          413.29459     -7400.385       92.260689      2346.6614      34693.008     -1.7984989    
ec    31800  31.8           0.001          415.73916     -7404.5427      92.806397      2287.3077      34693.008      1.6696285    
ec    31900  31.9           0.001          414.10105     -7405.133       92.440719      2316.7814      34693.008     -0.95565165   
ec    32000  32             0.001          410.43314     -7406.4026      91.621921      2230.2512      34693.008      0.51546859   
ec    32100  32.1           0.001          391.96018     -7403.9859      87.498161      2107.9467      34693.008     -2.4750537    
ec    32200  32.2           0.001          396.542       -7404.0198      88.52097       2187.9937      34693.008      3.3944506    
ec    32300  32.3           0.001          400.37517     -7400.5128      89.376658      2138.8039      34693.008     -2.3536098    
ec    32400  32.4           0.001          391.33132     -7397.8364      87.357779      2139.3019      34693.008     -0.68273079   
ec    32500  32.5           0.001          398.5437      -7401.3338      88.967814      2239.8444      34693.008      1.7498604    
ec    32600  32.6           0.001          383.05004     -7400.1343      85.50913       2163.9322      34693.008     -1.484077     
ec    32700  32.7           0.001          399.68198     -7404.7391      89.221915      2025.8156      34693.008      0.69015551   
ec    32800  32.8           0.001          414.18815     -7407.1957      92.460162      2077.9829      34693.008      0.30177604   
ec    32900  32.9           0.001          395.47908     -7402.5721      88.283694      2082.1486      34693.008      1.2297409    
ec    33000  33             0.001          376.42926     -7398.1286      84.031159      1971.7683      34693.008     -1.1979226    
ec    33100  33.1           0.001          398.05249     -7402.2461      88.858162      2228.0925      34693.008      0.91960107   
ec    33200  33.2           0.001          400.97026     -7403.0531      89.509501      2144.7894      34693.008      0.33555837   
ec    33300  33.3           0.001          403.96545     -7404.809       90.178125      2173.0059      34693.008     -0.76080905   
ec    33400  33.4           0.001          412.23874     -7407.7383      92.02499       2189.2868      34693.008     -0.20115801   
ec    33500  33.5           0.001          395.5857      -7403.6948      88.307495      2219.2195      34693.008     -0.52412534   
ec    33600  33.6           0.001          394.84614     -7400.8517      88.1424        2165.6872      34693.008      1.1001272    
ec    33700  33.7           0.001          404.23984     -7400.4155      90.239377      2149.4763      34693.008     -1.6645313    
ec    33800  33.8           0.001          406.73223     -7402.0166      90.795758      2237.6458      34693.008     -0.19594762   
ec    33900  33.9           0.001          393.03627     -7403.7683      87.73838       2100.6834      34693.008      0.13141157   
ec    34000  34             0.001          403.10248     -7405.8356      89.985482      2112.0291      34693.008      1.0493126    
ec    34100  34.1           0.001          408.20226     -7405.1892      91.123917      2129.9329      34693.008     -0.95201948   
ec    34200  34.2           0.001          405.61674     -7402.3736      90.546747      2128.3507      34693.008      1.3695629    
ec    34300  34.3           0.001          403.09585     -7400.1612      89.984003      2123.1024      34693.008     -0.69235177   
ec    34400  34.4           0.001          392.98751     -7399.5066      87.727494      2156.4636      34693.008      0.47289045   
ec    34500  34.5           0.001          379.47624     -7400.8455      84.711342      2075.1716      34693.008     -0.72938467   
ec    34600  34.6           0.001          388.68528     -7403.3909      86.767098      1998.0998      34693.008      0.85921614   
ec    34700  34.7           0.001          404.33343     -7404.3236      90.26027       2220.2007      34693.008     -0.61300335   
ec    34800  34.8           0.001          416.997       -7404.33        93.087186      2329.9666      34693.008     -0.15887439   
ec    34900  34.9           0.001          411.77757     -7402.5226      91.922043      2255.5742      34693.008     -0.065221569  
ec    35000  35             0.001          414.82378     -7408.1563      92.602053      2158.1342      34693.008      0.02908657   
ec    35100  35.1           0.001          385.38623     -7403.853       86.030643      2043.8616      34693.008      0.56451263   
ec    35200  35.2           0.001          384.89929     -7401.4599      85.921942      1942.0453      34693.008     -0.20608389   
ec    35300  35.3           0.001          400.84736     -7402.0844      89.482065      2086.4328      34693.008     -0.84393215   
ec    35400  35.4           0.001          411.42348     -7403.4455      91.842998      2149.4165      34693.008      1.6489195    
ec    35500  35.5           0.001          393.3584      -7401.3852      87.810289      2169.1474      34693.008     -1.1520302    
ec    35600  35.6           0.001          390.39157     -7405.5006      87.147996      1947.4658      34693.008      1.6926936    
ec    35700  35.7           0.001          384.32014     -7403.6913      85.792658      2058.7782      34693.008      0.10500306   
ec    35800  35.8           0.001          389.09633     -7402.2394      86.858857      1989.2415      34693.008      0.8509243    
ec    35900  35.9           0.001          403.662       -7403.6855      90.110384      2112.3753      34693.008     -1.492645     
ec    36000  36             0.001          412.19306     -7404.7845      92.014793      2271.352       34693.008      2.0288376    
ec    36100  36.1           0.001          403.07351     -7403.2405      89.979014      2097.1695      34693.008     -2.8345221    
ec    36200  36.2           0.001          400.79862     -7406.4137      89.471185      2024.8829      34693.008      0.91525058   
ec    36300  36.3           0.001          376.90609     -7403.4013      84.137601      1956.8441      34693.008      0.016481582  
ec    36400  36.4           0.001          386.04671     -7402.5229      86.178083      2015.0032      34693.008     -0.21908912   
ec    36500  36.5           0.001          408.45405     -7405.132       91.180124      2032.0037      34693.008     -0.32968625   
ec    36600  36.6           0.001          400.90337     -7402.3626      89.49457       2111.4715      34693.008     -1.1429326    
ec    36700  36.7           0.001          391.68961     -7400.5111      87.437761      2087.1617      34693.008      2.2365066    
ec    36800  36.8           0.001          393.46823     -7403.2093      87.834807      2019.564       34693.008     -2.3013405    
ec    36900  36.9           0.001          392.07751     -7406.1088      87.524352      2053.6848      34693.008      2.3708977    
ec    37000  37             0.001          391.4879      -7404.5999      87.392732      2086.7961      34693.008     -1.2263265    
ec    37100  37.1           0.001          409.97756     -7405.0544      91.520222      2287.1948      34693.008      1.0106911    
ec    37200  37.2           0.001          409.58875     -7404.4124      91.433427      2067.5095      34693.008     -1.0094811    
ec    37300  37.3           0.001          394.1783      -7400.9906      87.993316      2181.9717      34693.008      0.1465093    
ec    37400  37.4           0.001          399.45245     -7403.8543      89.170677      2075.555       34693.008      0.61063833   
ec    37500  37.5           0.001          381.28059     -7403.4335      85.114131      1864.6641      34693.008      0.65150617   
ec    37600  37.6           0.001          388.84995     -7405.3077      86.803858      1911.6096      34693.008     -0.94702869   
ec    37700  37.7           0.001          390.69213     -7400.7749      87.215092      2071.3266      34693.008     -0.092987879  
ec    37800  37.8           0.001          400.58999     -7401.5793      89.424613      2165.9559      34693.008      0.56361906   
ec    37900  37.9           0.001          408.60562     -7404.292       91.213959      2139.0969      34693.008     -0.56384389   
ec    38000  38             0.001          403.17338     -7405.0561      90.001308      2077.1858      34693.008     -0.068727328  
ec    38100  38.1           0.001          386.88502     -7403.7084      86.365222      1966.644       34693.008     -1.2184851    
ec    38200  38.2           0.001          396.95393     -7405.6181      88.612928      2057.6595      34693.008      1.0003823    
ec    38300  38.3           0.001          398.42524     -7401.2939      88.941371      2018.4258      34693.008     -2.3659572    
ec    38400  38.4           0.001          392.78156     -7398.7067      87.68152       2124.4027      34693.008      1.8044436    
ec    38500  38.5           0.001          409.68391     -7403.6392      91.45467       2267.0578      34693.008     -0.84455546   
ec    38600  38.6           0.001          393.08148     -7403.4593      87.748471      2095.0674      34693.008     -0.054182284  
ec    38700  38.7           0.001          392.08282     -7403.3507      87.525537      2046.6918      34693.008      0.55298645   
ec    38800  38.8           0.001          396.04745     -7403.2563      88.410572      2015.0708      34693.008     -0.72631904   
ec    38900  38.9           0.001          399.57953     -7403.1094      89.199045      2006.1413      34693.008      0.16422608   
ec    39000  39             0.001          386.34509     -7399.6424      86.244693      2099.1065      34693.008     -0.27500492   
ec    39100  39.1           0.001          401.90144     -7403.0505      89.717371      2106.7773      34693.008      0.60510324   
ec    39200  39.2           0.001          409.35142     -7405.3041      91.380448      2145.7177      34693.008     -0.12688935   
ec    39300  39.3           0.001          404.93092     -7404.9163      90.393649      2126.9167      34693.008     -0.15192196   
ec    39400  39.4           0.001          405.09697     -7404.6756      90.430715      2078.907       34693.008     -0.500462     
ec    39500  39.5           0.001          388.91556     -7400.2201      86.818502      1931.2061      34693.008     -0.17437932   
ec    39600  39.6           0.001          394.37047     -7399.9006      88.036215      2129.6262      34693.008     -0.53050445   
ec    39700  39.7           0.001          398.46538     -7400.8886      88.950333      2202.9914      34693.008      0.98700409   
ec    39800  39.8           0.001          391.4837      -7402.7095      87.391795      1999.0787      34693.008      0.18116663   
ec    39900  39.9           0.001          388.92842     -7404.0167      86.821375      2094.9959      34693.008      0.17362088   
ec    40000  40             0.001          399.60668     -7405.2938      89.205106      2104.6872      34693.008     -1.4703974    
ec    40100  40.1           0.001          401.49166     -7401.136       89.625895      2149.9811      34693.008      0.29610157   
ec    40200  40.2           0.001          408.32941     -7402.6962      91.152301      2133.7722      34693.008      1.5263922    
ec    40300  40.3           0.001          400.82891     -7402.6912      89.477947      2141.4442      34693.008     -2.4770084    
ec    40400  40.4           0.001          396.70595     -7404.4775      88.557569      2032.4518      34693.008      2.3084867    
ec    40500  40.5           0.001          394.1707      -7404.6619      87.99162       2091.5653      34693.008     -1.1416456    
ec    40600  40.6           0.001          402.25295     -7402.4616      89.795839      2193.4879      34693.008     -0.14771455   
ec    40700  40.7           0.001          402.97029     -7399.5335      89.955974      2147.4876      34693.008      0.21533231   
ec    40800  40.8           0.001          405.42367     -7401.6767      90.503646      2280.6273      34693.008     -0.42681494   
ec    40900  40.9           0.001          402.09963     -7404.1089      89.761614      2121.6517      34693.008     -0.41328492   
ec    41000  41             0.001          391.45887     -7402.6215      87.386252      2062.3711      34693.008      1.2672034    
ec    41100  41.1           0.001          391.66125     -7402.1241      87.431431      2110.6181      34693.008     -1.1631582    
ec    41200  41.2           0.001          408.84853     -7403.3001      91.268185      2245.167       34693.008     -0.30469392   
ec    41300  41.3           0.001          419.94576     -7401.435       93.745446      2296.5342      34693.008      0.059058262  
ec    41400  41.4           0.001          404.90922     -7399.4817      90.388804      2219.5674      34693.008      0.11342329   
ec    41500  41.5           0.001          399.27835     -7400.9604      89.131813      2216.7757      34693.008      0.54269459   
ec    41600  41.6           0.001          396.91826     -7402.3767      88.604964      2053.2591      34693.008     -0.41745548   
ec    41700  41.7           0.001          384.97556     -7400.5927      85.938969      1950.9055      34693.008      0.57997094   
ec    41800  41.8           0.001          403.33435     -7405.4887      90.037243      2036.9127      34693.008      0.62664927   
ec    41900  41.9           0.001          391.18664     -7403.8453      87.325482      2010.9968      34693.008     -0.503057     
ec    42000  42             0.001          395.16703     -7403.8385      88.214033      2039.29        34693.008      1.1686075    
ec    42100  42.1           0.001          404.72638     -7402.5684      90.34799       2208.7879      34693.008     -1.5574904    
ec    42200  42.2           0.001          420.47095     -7404.527       93.862686      2313.5562      34693.008      0.073615718  
ec    42300  42.3           0.001          408.39002     -7403.9443      91.165831      2170.2463      34693.008     -1.6943171    
ec    42400  42.4           0.001          400.32448     -7406.5186      89.365343      2110.5104      34693.008      1.3319267    
ec    42500  42.5           0.001          389.11332     -7404.689       86.862649      2013.6656      34693.008     -1.3717149    
ec    42600  42.6           0.001          393.02078     -7403.5587      87.734921      1997.0415      34693.008      1.2609927    
ec    42700  42.7           0.001          388.47878     -7400.3851      86.721         2042.9362      34693.008     -0.069088785  
ec    42800  42.8           0.001          396.24181     -7400.5596      88.453959      2256.0958      34693.008     -1.9224698    
ec    42900  42.9           0.001          400.1817      -7401.6498      89.333468      2128.99        34693.008      2.5723243    
ec    43000  43             0.001          390.74923     -7403.7483      87.227839      1867.1156      34693.008     -1.7183606    
ec    43100  43.1           0.001          393.71103     -7405.5998      87.889008      2007.1186      34693.008      0.042467805  
ec    43200  43.2           0.001          387.739       -7402.1275      86.555857      1998.1378      34693.008      1.306615     
ec    43300  43.3           0.001          406.13274     -7403.1376      90.661934      2116.0301      34693.008      0.073585895  
ec    43400  43.4           0.001          411.81295     -7404.0116      91.929939      2283.5044      34693.008     -0.16764028   
ec    43500  43.5           0.001          400.30878     -7402.6715      89.361839      2264.3217      34693.008      1.4211047    
ec    43600  43.6           0.001          396.1599      -7403.742       88.435674      2172.8682      34693.008     -1.2165713    
ec    43700  43.7           0.001          386.2425      -7405.8613      86.22179       1990.6479      34693.008     -0.69537919   
ec    43800  43.8           0.001          379.7583      -7405.9395      84.774307      1885.9118      34693.008      1.5376715    
ec    43900  43.9           0.001          390.01412     -7402.1773      87.063736      2014.9206      34693.008     -0.053839452  
ec    44000  44             0.001          402.64685     -7402.8694      89.883771      2090.0695      34693.008     -1.1462246    
ec    44100  44.1           0.001          398.3149      -7401.204       88.916739      2197.7086      34693.008      0.93675446   
ec    44200  44.2           0.001          410.89708     -7404.9552      91.725489      2210.1182      34693.008     -0.035197915  
ec    44300  44.3           0.001          398.66899     -7404.8813      88.995784      2115.3986      34693.008      0.70518134   
ec    44400  44.4           0.001          390.38815     -7404.5592      87.147234      2021.2158      34693.008     -1.2769933    
ec    44500  44.5           0.001          393.20904     -7402.4104      87.776947      2028.7932      34693.008      0.81428247   
ec    44600  44.6           0.001          401.99795     -7400.4888      89.738915      2088.3326      34693.008     -0.41021624   
ec    44700  44.7           0.001          414.37707     -7403.6431      92.502335      2178.8052      34693.008     -1.5597997    
ec    44800  44.8           0.001          401.52987     -7403.5989      89.634425      2092.543       34693.008      1.555082     
ec    44900  44.9           0.001          387.67888     -7402.4264      86.542438      1949.2716      34693.008     -1.0848813    
ec    45000  45             0.001          402.06525     -7404.9811      89.753939      2143.6371      34693.008     -1.3768981    
ec    45100  45.1           0.001          397.31892     -7403.0473      88.694405      2169.8537      34693.008      2.1122965    
ec    45200  45.2           0.001          397.2263      -7402.4484      88.673729      2007.1132      34693.008     -1.169818     
ec    45300  45.3           0.001          400.72474     -7402.8507      89.454693      2054.1797      34693.008      1.2213302    
ec    45400  45.4           0.001          400.469       -7403.2096      89.397605      2089.5182      34693.008     -1.0592761    
ec    45500  45.5           0.001          397.2949      -7405.5109      88.689041      2098.7604      34693.008     -0.12945255   
ec    45600  45.6           0.001          394.66659     -7406.5731      88.102319      1999.0803      34693.008     -0.93147481   
ec    45700  45.7           0.001          398.07184     -7404.8169      88.862481      2134.4258      34693.008      1.091462     
ec    45800  45.8           0.001          395.03895     -7401.0293      88.185441      2060.6186      34693.008     -0.27961747   
ec    45900  45.9           0.001          401.96894     -7401.6472      89.732438      2208.0459      34693.008     -0.12702917   
ec    46000  46             0.001          395.84575     -7401.9466      88.365546      2109.1249      34693.008      0.56364713   
ec    46100  46.1           0.001          384.21592     -7403.4307      85.769392      1999.0064      34693.008      0.22100138   
ec    46200  46.2           0.001          389.37008     -7405.702       86.919967      2169.9307      34693.008      0.44153331   
ec    46300  46.3           0.001          398.16313     -7406.0665      88.882859      2048.3917      34693.008     -1.8232935    
ec    46400  46.4           0.001          382.29418     -7400.7506      85.340397      2037.2323      34693.008      2.5840554    
ec    46500  46.5           0.001          409.03224     -7404.4262      91.309196      2194.4059      34693.008     -2.6260426    
ec    46600  46.6           0.001          418.32573     -7405.2755      93.383803      2253.5846      34693.008      1.4319778    
ec    46700  46.7           0.001          394.07411     -7400.5204      87.970057      2201.1201      34693.008     -0.023866218  
ec    46800  46.8           0.001          389.57392     -7403.4939      86.965472      1974.142       34693.008     -0.6488111    
ec    46900  46.9           0.001          384.61577     -7403.9335      85.858651      1990.2311      34693.008      0.66693703   
ec    47000  47             0.001          387.44695     -7402.2271      86.490662      2097.6943      34693.008     -0.42677302   
ec    47100  47.1           0.001          408.22917     -7403.4937      91.129925      2181.2587      34693.008     -0.39553914   
ec    47200  47.2           0.001          407.17411     -7403.4138      90.894401      2228.02        34693.008     -0.97105352   
ec    47300  47.3           0.001          398.95193     -7402.9495      89.058945      2247.2986      34693.008      0.83900784   
ec    47400  47.4           0.001          403.26215     -7405.951       90.021126      2169.6649      34693.008     -1.549322     
ec    47500  47.5           0.001          389.35421     -7406.0872      86.916423      1913.6507      34693.008      1.2244543    
ec    47600  47.6           0.001          388.04375     -7406.236       86.623888      2015.2046      34693.008      0.77263437   
ec    47700  47.7           0.001          400.06526     -7403.7296      89.307476      2076.2552      34693.008     -1.437218     
ec    47800  47.8           0.001          394.16929     -7400.4706      87.991305      2213.32        34693.008     -0.42897379   
ec    47900  47.9           0.001          409.96611     -7404.0094      91.517665      2164.0569      34693.008      1.9431922    
ec    48000  48             0.001          404.12308     -7404.4864      90.213313      2133.4607      34693.008     -1.2387811    
ec    48100  48.1           0.001          389.60341     -7404.4195      86.972053      2032.5994      34693.008     -0.18023806   
ec    48200  48.2           0.001          393.87446     -7405.8904      87.92549       1989.1108      34693.008      0.49947815   
ec    48300  48.3           0.001          413.03394     -7404.8902      92.202504      2179.7458      34693.008     -0.20739263   
ec    48400  48.4           0.001          398.79959     -7400.5437      89.024937      2138.466       34693.008     -0.36215683   
ec    48500  48.5           0.001          406.97441     -7403.3546      90.849822      2129.5964      34693.008     -0.34035089   
ec    48600  48.6           0.001          398.45008     -7404.3444      88.946917      2175.5179      34693.008      0.9354577    
ec    48700  48.7           0.001          398.78471     -7406.1165      89.021617      2073.8063      34693.008     -0.87042741   
ec    48800  48.8           0.001          396.97897     -7404.1324      88.618518      2037.8763      34693.008      0.73697348   
ec    48900  48.9           0.001          395.98946     -7398.3884      88.397626      2147.9289      34693.008     -1.5434154    
ec    49000  49             0.001          384.65198     -7397.0195      85.866735      2041.2911      34693.008     -0.32418005   
ec    49100  49.1           0.001          394.58279     -7402.0917      88.083612      2006.6187      34693.008      0.85968162   
ec    49200  49.2           0.001          387.40701     -7402.248       86.481747      2154.0397      34693.008      0.23218132   
ec    49300  49.3           0.001          396.13917     -7404.9045      88.431047      2143.6973      34693.008     -0.35322448   
ec    49400  49.4           0.001          417.47437     -7406.4512      93.193751      2195.7648      34693.008      1.4321328    
ec    49500  49.5           0.001          410.1563      -7401.9611      91.560123      2266.835       34693.008     -0.90798728   
ec    49600  49.6           0.001          411.51104     -7403.4947      91.862544      2194.263       34693.008     -0.2759687    
ec    49700  49.7           0.001          388.5201      -7401.5663      86.730224      2143.643       34693.008      1.1008534    
ec    49800  49.8           0.001          392.50492     -7403.7622      87.619765      2073.0881      34693.008     -0.46062754   
ec    49900  49.9           0.001          407.74004     -7406.2933      91.020735      2201.5963      34693.008      0.028757523  
ec    50000  50             0.001          391.05139     -7401.753       87.29529       2117.5226      34693.008     -0.64072666   
ec    50100  50.1           0.001          393.09262     -7400.632       87.750959      2133.0812      34693.008      0.83029406   
ec    50200  50.2           0.001          404.12182     -7401.9725      90.213031      2150.8348      34693.008     -0.3847353    
ec    50300  50.3           0.001          401.21223     -7400.3354      89.563516      2175.9096      34693.008      0.77887651   
ec    50400  50.4           0.001          391.88907     -7399.8902      87.482287      2048.9767      34693.008     -0.63524127   
ec    50500  50.5           0.001          397.01915     -7403.9809      88.627487      2003.4504      34693.008      0.41313994   
ec    50600  50.6           0.001          402.60991     -7406.2362      89.875524      2091.2772      34693.008     -1.0992467    
ec    50700  50.7           0.001          395.88512     -7403.7735      88.374335      2051.1445      34693.008     -0.12228394   
ec    50800  50.8           0.001          408.03044     -7401.5785      91.085561      2324.4848      34693.008      0.011715678  
ec    50900  50.9           0.001          415.71724     -7403.2102      92.801503      2206.0577      34693.008     -0.15264509   
ec    51000  51             0.001          407.89584     -7404.3786      91.055514      2139.488       34693.008      0.72655589   
ec    51100  51.1           0.001          395.25215     -7403.6916      88.233035      2037.4991      34693.008      0.071713104  
ec    51200  51.2           0.001          405.40587     -7405.7044      90.499673      2062.8497      34693.008     -1.3262181    
ec    51300  51.3           0.001          403.39973     -7404.3994      90.051838      2085.5877      34693.008      1.2276461    
ec    51400  51.4           0.001          384.90213     -7399.972       85.922577      1975.5364      34693.008     -1.2901432    
ec    51500  51.5           0.001          405.38363     -7403.6071      90.494707      2208.0572      34693.008      0.50022766   
ec    51600  51.6           0.001          405.54205     -7404.0011      90.530072      2024.0879      34693.008     -0.52992563   
ec    51700  51.7           0.001          406.65959     -7404.4198      90.779544      2070.108       34693.008      0.26544188   
ec    51800  51.8           0.001          405.95375     -7404.3153      90.621977      2093.8217      34693.008     -0.69660971   
ec    51900  51.9           0.001          394.64849     -7402.4006      88.098279      2046.5961      34693.008      0.25527166   
ec    52000  52             0.001          392.82737     -7402.5221      87.691746      1978.4655      34693.008      0.68950522   
ec    52100  52.1           0.001          398.77922     -7404.4795      89.020391      2008.606       34693.008     -0.2405638    
ec    52200  52.2           0.001          395.46779     -7402.7861      88.281173      1993.4531      34693.008      0.79705033   
ec    52300  52.3           0.001          393.25359     -7400.0279      87.786891      2074.7759      34693.008     -0.23790818   
ec    52400  52.4           0.001          412.7052      -7402.0262      92.129118      2248.6673      34693.008      0.27506375   
ec    52500  52.5           0.001          403.13074     -7401.6297      89.991791      2181.4522      34693.008     -0.93651616   
ec    52600  52.6           0.001          388.30187     -7403.0258      86.681507      1964.1006      34693.008      1.6780281    
ec    52700  52.7           0.001          408.53495     -7407.3122      91.198184      2069.3256      34693.008     -0.61431435   
ec    52800  52.8           0.001          391.34341     -7401.6831      87.360478      2081.3693      34693.008     -0.087104986  
ec    52900  52.9           0.001          405.68617     -7401.9381      90.562246      2169.8546      34693.008      0.56172288   
ec    53000  53             0.001          418.0572      -7404.4785      93.323858      2219.8468      34693.008     -0.94624882   
ec    53100  53.1           0.001          394.9359      -7401.9197      88.162438      2060.3796      34693.008      0.81941527   
ec    53200  53.2           0.001          373.09461     -7400.7022      83.286758      1939.7098      34693.008     -0.09638246   
ec    53300  53.3           0.001          377.51752     -7407.9998      84.274093      1760.591       34693.008      0.440277     
ec    53400  53.4           0.001          384.03254     -7408.2881      85.728456      1857.4505      34693.008     -0.23762845   
ec    53500  53.5           0.001          379.95894     -7402.6665      84.819096      1946.4124      34693.008     -0.63705039   
ec    53600  53.6           0.001          401.70113     -7403.8745      89.672655      2123.7858      34693.008      0.62229661   
ec    53700  53.7           0.001          404.85621     -7402.4305      90.376972      2152.5614      34693.008      0.40680473   
ec    53800  53.8           0.001          408.51605     -7402.5519      91.193965      2166.1515      34693.008     -0.51344253   
ec    53900  53.9           0.001          401.0874      -7402.8205      89.535651      2148.994       34693.008      0.28970359   
ec    54000  54             0.001          395.26597     -7405.1037      88.236119      1962.7805      34693.008      1.0633772    
ec    54100  54.1           0.001          393.51355     -7404.9928      87.844923      2005.7005      34693.008     -0.051643163  
ec    54200  54.2           0.001          390.78546     -7402.1703      87.235925      1998.0919      34693.008     -0.18069245   
ec    54300  54.3           0.001          402.91296     -7403.7469      89.943175      2034.5802      34693.008      0.39273084   
ec    54400  54.4           0.001          392.57435     -7401.1839      87.635262      2131.7091      34693.008     -0.48644868   
ec    54500  54.5           0.001          401.5205      -7403.032       89.632333      2116.4141      34693.008     -0.58957902   
ec    54600  54.6           0.001          399.87999     -7403.1399      89.266118      2057.9962      34693.008      0.32616559   
ec    54700  54.7           0.001          387.64288     -7402.5733      86.534401      1976.4648      34693.008     -0.48411884   
ec    54800  54.8           0.001          390.29362     -7404.582       87.126131      1984.048       34693.008      0.45142411   
ec    54900  54.9           0.001          407.44212     -7406.8661      90.954229      2020.1718      34693.008     -0.74926044   
ec    55000  55             0.001          404.74071     -7402.1402      90.351188      2134.1488      34693.008      1.3846163    
ec    55100  55.1           0.001          395.86905     -7399.7409      88.370748      2125.6409      34693.008     -0.41689445   
ec    55200  55.2           0.001          408.59705     -7404.3287      91.212048      1978.1881      34693.008     -0.5492537    
ec    55300  55.3           0.001          391.27757     -7402.9705      87.34578       1981.6118      34693.008      0.11006672   
ec    55400  55.4           0.001          389.81007     -7403.627       87.018188      1983.8591      34693.008      0.34824383   
ec    55500  55.5           0.001          401.99353     -7404.9403      89.737927      1949.787       34693.008     -0.85636951   
ec    55600  55.6           0.001          407.67718     -7402.5386      91.006703      2140.9328      34693.008      0.020137142  
ec    55700  55.7           0.001          404.70164     -7400.8636      90.342467      2185.443       34693.008      0.94298494   
ec    55800  55.8           0.001          406.22264     -7403.8239      90.682003      2000.484       34693.008     -0.95220926   
ec    55900  55.9           0.001          390.40588     -7403.0495      87.15119       2016.7666      34693.008      0.84682069   
ec    56000  56             0.001          396.90947     -7404.6693      88.603001      1991.8227      34693.008     -0.21017433   
ec    56100  56.1           0.001          397.91586     -7402.4372      88.827661      2019.8518      34693.008      1.2595375    
ec    56200  56.2           0.001          407.52548     -7399.9143      90.972838      2060.4434      34693.008     -1.0026057    
ec    56300  56.3           0.001          395.05005     -7398.5704      88.187921      2149.5064      34693.008     -2.1153313    
ec    56400  56.4           0.001          397.43167     -7402.2364      88.719573      2060.575       34693.008      2.643759     
ec    56500  56.5           0.001          395.7137      -7403.4943      88.336068      1927.6299      34693.008     -1.1054739    
ec    56600  56.6           0.001          403.37793     -7404.9785      90.046972      2015.9039      34693.008     -0.8810072    
ec    56700  56.7           0.001          404.7338      -7403.0163      90.349646      2187.5834      34693.008      0.39725312   
ec    56800  56.8           0.001          409.51987     -7399.8211      91.418051      2214.5066      34693.008      0.1551705    
ec    56900  56.9           0.001          403.81033     -7399.4952      90.143496      2188.2503      34693.008      0.4834284    
ec    57000  57             0.001          405.08392     -7403.0538      90.427803      2077.6241      34693.008     -0.40012482   
ec    57100  57.1           0.001          407.04648     -7404.6864      90.865911      2006.9257      34693.008      0.32800883   
ec    57200  57.2           0.001          393.82662     -7402.6159      87.91481       2063.0199      34693.008      0.39796999   
ec    57300  57.3           0.001          394.09978     -7403.1949      87.975788      2041.3296      34693.008     -1.0210637    
ec    57400  57.4           0.001          401.25752     -7404.1755      89.573627      1998.2367      34693.008      0.1393099    
ec    57500  57.5           0.001          393.49188     -7400.1859      87.840086      1958.9512      34693.008      0.88771382   
ec    57600  57.6           0.001          399.38608     -7399.6269      89.155862      2136.3702      34693.008     -1.1871067    
ec    57700  57.7           0.001          394.69592     -7400.5711      88.108867      2002.9672      34693.008      0.31877585   
ec    57800  57.8           0.001          397.50176     -7405.2675      88.735221      1896.6337      34693.008     -0.050463502  
ec    57900  57.9           0.001          392.44304     -7404.3291      87.60595       1925.7851      34693.008      0.68495809   
ec    58000  58             0.001          410.69161     -7406.3469      91.67962       2096.5674      34693.008     -1.935012     
ec    58100  58.1           0.001          401.85393     -7402.7749      89.706765      2142.7404      34693.008      2.1164113    
ec    58200  58.2           0.001          396.06798     -7401.5299      88.415155      1972.3245      34693.008     -1.5146138    
ec    58300  58.3           0.001          407.4026      -7404.0809      90.945408      2181.1259      34693.008      0.81342847   
ec    58400  58.4           0.001          392.47534     -7401.5122      87.613161      1939.8361      34693.008      0.67881974   
ec    58500  58.5           0.001          396.02378     -7402.5466      88.405287      1933.0563      34693.008     -1.0199966    
ec    58600  58.6           0.001          401.53028     -7403.6246      89.634516      2055.7403      34693.008      1.3062708    
ec    58700  58.7           0.001          398.80769     -7402.591       89.026746      2020.5527      34693.008      0.18820761   
ec    58800  58.8           0.001          391.98577     -7400.201       87.503873      2040.6455      34693.008     -0.1146939    
ec    58900  58.9           0.001          396.30241     -7401.0021      88.467486      2013.5786      34693.008      0.96376819   
ec    59000  59             0.001          404.08357     -7403.8258      90.204492      2068.9398      34693.008     -1.0111633    
ec    59100  59.1           0.001          394.51102     -7404.7035      88.067591      1842.5063      34693.008      0.081276772  
ec    59200  59.2           0.001          399.97721     -7406.0491      89.28782       2091.4974      34693.008      1.2062059    
ec    59300  59.3           0.001          397.76762     -7401.782       88.794568      2105.4751      34693.008     -0.64303732   
ec    59400  59.4           0.001          397.51399     -7399.2128      88.73795       2036.4765      34693.008      0.6330226    
ec    59500  59.5           0.001          409.77263     -7402.976       91.474475      2223.4382      34693.008     -1.4525584    
ec    59600  59.6           0.001          393.74108     -7402.3539      87.895715      1968.5425      34693.008      0.97666731   
ec    59700  59.7           0.001          388.39181     -7402.1217      86.701585      1921.8925      34693.008     -0.22621959   
ec    59800  59.8           0.001          394.31761     -7402.9244      88.024416      1969.0609      34693.008     -0.60993168   
ec    59900  59.9           0.001          408.38924     -7404.8478      91.165657      2061.1428      34693.008      1.6664276    
Fix halt condition for fix-id myhalt met on step 60000 with value 60 (../fix_halt.cpp:240)
ec    60000  60             0.001          394.44694     -7401.5874      88.053286      1987.1017      34693.008     -0.92739974   
Loop time of 28.0456 on 2 procs for 30000 steps with 1728 atoms

Performance: 92.421 ns/day, 0.260 hours/ns, 1069.685 timesteps/s, 1.848 Matom-step/s
99.2% CPU use with 2 MPI tasks x no OpenMP threads

MPI task timing breakdown:
Section |  min time  |  avg time  |  max time  |%varavg| %total
---------------------------------------------------------------
Pair    | 25.374     | 26.171     | 26.969     |  15.6 | 93.32
Neigh   | 0          | 0          | 0          |   0.0 |  0.00
Comm    | 0.60267    | 1.403      | 2.2034     |  67.6 |  5.00
Output  | 0.0053202  | 0.008007   | 0.010694   |   3.0 |  0.03
Modify  | 0.32008    | 0.32335    | 0.32662    |   0.6 |  1.15
Other   |            | 0.14       |            |       |  0.50

Nlocal:            864 ave         885 max         843 min
Histogram: 1 0 0 0 0 0 0 0 0 1
Nghost:           2006 ave        2027 max        1985 min
Histogram: 1 0 0 0 0 0 0 0 0 1
Neighs:              0 ave           0 max           0 min
Histogram: 2 0 0 0 0 0 0 0 0 0
FullNghs:        29943 ave       30735 max       29151 min
Histogram: 1 0 0 0 0 0 0 0 0 1

Total # of neighbors = 59886
Ave neighs/atom = 34.65625
Neighbor list builds = 0
Dangerous builds = 0

write_data cell.data_${temp}
write_data cell.data_400
System init for write_data ...
Total wall time: 0:00:55
