

units metal
timestep 0.001
boundary p p p

lattice         diamond 5.43
Lattice spacing in x,y,z = 5.43 5.43 5.43
region          box block 0 ${N} 0 ${N} 0 ${N}
region          box block 0 2 0 ${N} 0 ${N}
region          box block 0 2 0 2 0 ${N}
region          box block 0 2 0 2 0 2
create_box      1 box
Created orthogonal box = (0 0 0) to (10.86 10.86 10.86)
  1 by 1 by 2 MPI processor grid
create_atoms    1 box
Created 64 atoms
  using lattice units in orthogonal box = (0 0 0) to (10.86 10.86 10.86)
  create_atoms CPU = 0.001 seconds

timestep ${dt}
timestep 0.001

mass 1 28.0855
labelmap atom 1 Si

pair_style sw
pair_coeff * * Si.sw Si
Reading sw potential file Si.sw with DATE: 2007-06-11


velocity all create ${temp} 4928459 mom yes rot yes dist gaussian
velocity all create 300 4928459 mom yes rot yes dist gaussian

variable t equal time
#fix myhalt all halt 100 v_t >= 30.0 error continue

#fix NVE all nve

#run 10000000

#unfix myhalt

compute 1 all vacf

thermo 100
thermo_style	custom step time dt temp pe ke press vol #c_1[4]
thermo_modify	line one flush yes format 1 "ec %8lu" flush yes


fix NPT all npt temp ${temp} ${temp} ${tau_T} iso 0.0 0.0 1.0
fix NPT all npt temp 300 ${temp} ${tau_T} iso 0.0 0.0 1.0
fix NPT all npt temp 300 300 ${tau_T} iso 0.0 0.0 1.0
fix NPT all npt temp 300 300 0.1 iso 0.0 0.0 1.0

fix myhalt all halt 100 v_t >= 30.0 error continue

run 10000000

CITE-CITE-CITE-CITE-CITE-CITE-CITE-CITE-CITE-CITE-CITE-CITE-CITE

Your simulation uses code contributions which should be cited:

- Type Label Framework: https://doi.org/10.1021/acs.jpcb.3c08419

@Article{Gissinger24,
 author = {Jacob R. Gissinger, Ilia Nikiforov, Yaser Afshar, Brendon Waters, Moon-ki Choi, Daniel S. Karls, Alexander Stukowski, Wonpil Im, Hendrik Heinz, Axel Kohlmeyer, and Ellad B. Tadmor},
 title = {Type Label Framework for Bonded Force Fields in LAMMPS},
 journal = {J. Phys. Chem. B},
 year =    2024,
 volume =  128,
 number =  13,
 pages =   {3282--3297}
}

CITE-CITE-CITE-CITE-CITE-CITE-CITE-CITE-CITE-CITE-CITE-CITE-CITE

Neighbor list info ...
  update: every = 1 steps, delay = 0 steps, check = yes
  max neighbors/atom: 2000, page size: 100000
  master list distance cutoff = 5.77118
  ghost atom cutoff = 5.77118
  binsize = 2.88559, bins = 4 4 4
  1 neighbor lists, perpetual/occasional/extra = 1 0 0
  (1) pair sw, perpetual
      attributes: full, newton on
      pair build: full/bin/atomonly
      stencil: full/bin/3d
      bin: standard
Per MPI rank memory allocation (min/avg/max) = 3.57 | 3.57 | 3.57 Mbytes
   Step          Time            Dt            Temp          PotEng         KinEng         Press          Volume    
ec        0  0              0.001          300           -277.54229      2.4430167      2569.8731      1280.8241    
ec      100  0.1            0.001          155.40217     -275.97255      1.2655003     -950.65383      1285.7957    
ec      200  0.2            0.001          198.411       -275.76134      1.615738       682.27666      1284.0349    
ec      300  0.3            0.001          263.84142     -275.52241      2.1485634      18.189753      1285.0802    
ec      400  0.4            0.001          185.16751     -274.16676      1.507891      -2087.7779      1288.675     
ec      500  0.5            0.001          277.66379     -274.4287       2.2611243      1133.7084      1284.6694    
ec      600  0.6            0.001          372.88401     -275.19255      3.0365396     -1290.5894      1288.6663    
ec      700  0.7            0.001          355.64224     -275.50818      2.8961331      682.87412      1285.3521    
ec      800  0.8            0.001          199.07843     -274.5997       1.6211731      1104.835       1284.5821    
ec      900  0.9            0.001          298.02352     -275.44234      2.4269215     -2541.0523      1288.8928    
ec     1000  1              0.001          280.6917      -274.94096      2.2857818      1525.1097      1283.4686    
ec     1100  1.1            0.001          251.7622      -274.31715      2.0501976     -2413.88        1289.4677    
ec     1200  1.2            0.001          406.55307     -275.62519      3.3107198     -390.52736      1286.564     
ec     1300  1.3            0.001          321.95689     -275.28011      2.6218202      2961.3089      1283.3421    
ec     1400  1.4            0.001          310.15009     -275.46592      2.5256729     -2503.6702      1289.6958    
ec     1500  1.5            0.001          340.60253     -275.6936       2.7736589      5119.6237      1280.453     
ec     1600  1.6            0.001          223.94406     -274.62416      1.8236636     -2681.9494      1289.3751    
ec     1700  1.7            0.001          306.27431     -274.99208      2.4941109     -1443.4598      1287.6829    
ec     1800  1.8            0.001          280.77654     -274.55933      2.2864726      3269.7117      1282.1699    
ec     1900  1.9            0.001          290.06415     -274.77105      2.3621053     -6380.4489      1294.7188    
ec     2000  2              0.001          276.0889      -275.24829      2.2482994      6182.208       1278.4032    
ec     2100  2.1            0.001          330.84532     -275.81293      2.6942022     -2791.4451      1289.3571    
ec     2200  2.2            0.001          284.43955     -275.19441      2.3163019     -1427.2188      1288.1661    
ec     2300  2.3            0.001          231.19679     -274.51806      1.8827255      5679.9697      1278.785     
ec     2400  2.4            0.001          350.05898     -275.40645      2.8506665     -8841.2282      1297.2933    
ec     2500  2.5            0.001          223.02905     -274.40214      1.8162123      5883.6241      1278.4643    
ec     2600  2.6            0.001          309.19677     -275.17843      2.5179096     -2301.7499      1289.313     
ec     2700  2.7            0.001          342.53761     -275.89209      2.7894171     -3195.5319      1290.0317    
ec     2800  2.8            0.001          293.40626     -275.66984      2.3893213      8754.1371      1275.2529    
ec     2900  2.9            0.001          262.93519     -275.03297      2.1411836     -7694.8717      1296.8598    
ec     3000  3              0.001          314.97915     -275.059        2.5649978      6851.9574      1278.1551    
ec     3100  3.1            0.001          257.98021     -274.59116      2.1008333     -1834.7481      1288.4604    
ec     3200  3.2            0.001          254.66792     -274.66506      2.07386       -5354.699       1292.9664    
ec     3300  3.3            0.001          333.83576     -275.65038      2.7185545      8320.4425      1275.1217    
ec     3400  3.4            0.001          255.78718     -275.4456       2.0829745     -9104.5417      1297.2429    
ec     3500  3.5            0.001          262.10427     -275.31375      2.1344171      6137.4033      1278.4866    
ec     3600  3.6            0.001          316.41916     -275.20062      2.5767243      436.63006      1285.8753    
ec     3700  3.7            0.001          305.90218     -275.01703      2.4910805     -6021.6871      1294.0473    
ec     3800  3.8            0.001          276.52383     -274.78769      2.2518411      8442.059       1275.3554    
ec     3900  3.9            0.001          329.26224     -275.35667      2.6813105     -8758.4222      1297.3523    
ec     4000  4              0.001          240.31154     -274.91172      1.9569504      3207.245       1281.078     
ec     4100  4.1            0.001          234.52461     -275.02104      1.9098252      2013.7244      1283.6521    
ec     4200  4.2            0.001          287.26643     -275.2011       2.3393223     -5466.7529      1293.7824    
ec     4300  4.3            0.001          319.04411     -274.88013      2.5981004      9865.9811      1274.8788    
ec     4400  4.4            0.001          361.42651     -275.16196      2.9432367     -6758.5356      1295.5439    
ec     4500  4.5            0.001          360.28443     -275.46603      2.9339363      2188.9092      1283.2066    
ec     4600  4.6            0.001          283.52365     -275.23797      2.3088434      1985.8676      1283.0012    
ec     4700  4.7            0.001          259.53739     -275.13072      2.113514      -7112.0437      1294.6098    
ec     4800  4.8            0.001          331.75618     -274.94572      2.7016197      8440.9413      1276.2225    
ec     4900  4.9            0.001          313.99423     -274.45098      2.5569772     -5842.4991      1294.1701    
ec     5000  5              0.001          333.7414      -275.07525      2.7177861      1908.7791      1284.3757    
ec     5100  5.1            0.001          304.09422     -275.29017      2.4763576      3438.615       1281.6365    
ec     5200  5.2            0.001          232.26691     -274.81369      1.8914398     -6789.8835      1294.4805    
ec     5300  5.3            0.001          220.3939      -274.51232      1.7947533      5678.6699      1278.2508    
ec     5400  5.4            0.001          359.82711     -275.00802      2.9302122     -4768.81        1292.4604    
ec     5500  5.5            0.001          317.15985     -274.6519       2.5827561      230.89339      1286.3633    
ec     5600  5.6            0.001          352.50415     -275.1941       2.8705785      4025.2634      1281.6673    
ec     5700  5.7            0.001          397.0176      -275.75239      3.2330688     -4135.4356      1292.2992    
ec     5800  5.8            0.001          322.71693     -275.32674      2.6280095      5243.3969      1279.6419    
ec     5900  5.9            0.001          262.55378     -274.98334      2.1380776     -2504.8957      1289.436     
ec     6000  6              0.001          264.3303      -275.05498      2.1525445     -1198.4466      1287.0122    
ec     6100  6.1            0.001          301.74619     -275.13586      2.4572367      2576.7762      1282.4972    
ec     6200  6.2            0.001          251.02976     -274.33565      2.044233      -4009.4817      1291.5325    
ec     6300  6.3            0.001          371.92096     -275.1902       3.0286971      3982.6088      1281.9692    
ec     6400  6.4            0.001          300.39353     -275.11125      2.4462214     -1266.5586      1287.8178    
ec     6500  6.5            0.001          267.30889     -275.26344      2.1768003     -691.57826      1286.5926    
ec     6600  6.6            0.001          295.11232     -275.39445      2.4032144      1946.6291      1282.9347    
ec     6700  6.7            0.001          269.1571      -274.89695      2.191851      -4134.2886      1290.5953    
ec     6800  6.8            0.001          275.04319     -274.73559      2.2397838      1506.0003      1283.9154    
ec     6900  6.9            0.001          307.54543     -275.00037      2.5044621     -742.47574      1287.1037    
ec     7000  7              0.001          326.07793     -275.20761      2.6553795      13.944599      1286.8553    
ec     7100  7.1            0.001          320.60481     -275.21316      2.6108098      3169.0465      1282.7387    
ec     7200  7.2            0.001          365.04121     -275.61415      2.9726726     -1566.2487      1288.4482    
ec     7300  7.3            0.001          280.16189     -274.96939      2.2814673      1158.9777      1284.2034    
ec     7400  7.4            0.001          279.62663     -274.91917      2.2771084     -710.22297      1286.7914    
ec     7500  7.5            0.001          277.75942     -274.78355      2.261903      -1656.2889      1287.8833    
ec     7600  7.6            0.001          289.97919     -274.82514      2.3614134      2107.7061      1283.6571    
ec     7700  7.7            0.001          311.12032     -275.11961      2.5335739     -1728.8839      1288.329     
ec     7800  7.8            0.001          326.84066     -275.57066      2.6615907      1149.3527      1284.3234    
ec     7900  7.9            0.001          273.16887     -275.3929       2.2245204      214.57792      1285.109     
ec     8000  8              0.001          224.36285     -274.82057      1.827074      -1573.1762      1287.4848    
ec     8100  8.1            0.001          309.19408     -274.86143      2.5178877      513.56456      1284.8192    
ec     8200  8.2            0.001          279.075       -274.54585      2.2726163     -2834.1793      1288.9689    
ec     8300  8.3            0.001          316.21195     -275.14651      2.575037       1289.4052      1284.9006    
ec     8400  8.4            0.001          362.55404     -275.88994      2.9524186      1063.1172      1284.5814    
ec     8500  8.5            0.001          295.81807     -275.39495      2.4089616     -306.04577      1286.7449    
ec     8600  8.6            0.001          303.92258     -275.12626      2.4749598      2702.521       1283.1099    
ec     8700  8.7            0.001          353.35019     -274.69357      2.8774681     -533.46439      1287.8869    
ec     8800  8.8            0.001          245.71476     -274.14892      2.0009509     -1018.5001      1286.8513    
ec     8900  8.9            0.001          298.41199     -275.10001      2.4300849     -329.6983       1285.5801    
ec     9000  9              0.001          273.54842     -275.18511      2.2276113     -1459.26        1287.3075    
ec     9100  9.1            0.001          302.00163     -275.38339      2.4593168      1260.5939      1283.813     
ec     9200  9.2            0.001          310.50845     -274.99674      2.5285912     -544.72031      1287.0438    
ec     9300  9.3            0.001          356.50534     -274.98262      2.9031617      184.19697      1286.0782    
ec     9400  9.4            0.001          326.31304     -274.91506      2.6572941      411.65507      1285.5036    
ec     9500  9.5            0.001          255.49256     -274.60955      2.0805753     -2362.5044      1288.556     
ec     9600  9.6            0.001          339.22218     -275.38459      2.7624182      1704.6111      1283.7869    
ec     9700  9.7            0.001          236.27001     -274.62931      1.9240387     -1305.119       1287.6367    
ec     9800  9.8            0.001          333.50341     -275.43847      2.715848       1084.5418      1285.1163    
ec     9900  9.9            0.001          322.78934     -275.29048      2.6285992      2879.2501      1283.1543    
ec    10000  10             0.001          347.67431     -275.29089      2.8312472     -2167.1987      1289.2916    
ec    10100  10.1           0.001          352.27525     -275.14649      2.8687145      2288.2394      1282.7127    
ec    10200  10.2           0.001          286.13175     -274.74625      2.3300821     -2924.0388      1289.2691    
ec    10300  10.3           0.001          261.01939     -275.09767      2.1255824     -1258.0577      1286.6302    
ec    10400  10.4           0.001          219.71294     -274.9116       1.789208       2456.254       1282.0728    
ec    10500  10.5           0.001          314.92242     -275.41362      2.5645358     -4358.8411      1291.4583    
ec    10600  10.6           0.001          282.89343     -274.87166      2.3037113      4518.437       1280.2403    
ec    10700  10.7           0.001          325.13815     -275.17313      2.6477265     -1546.7178      1288.3936    
ec    10800  10.8           0.001          296.30717     -275.00663      2.4129446     -1588.8032      1287.8769    
ec    10900  10.9           0.001          227.2558      -274.58707      1.8506324      4586.717       1280.0396    
ec    11000  11             0.001          276.55795     -275.26394      2.252119      -6910.0491      1293.8693    
ec    11100  11.1           0.001          276.57405     -275.48618      2.2522501      5410.4767      1278.7396    
ec    11200  11.2           0.001          333.82997     -275.65456      2.7185074     -1224.5792      1287.5316    
ec    11300  11.3           0.001          390.59861     -275.56674      3.1807965     -1643.4162      1288.976     
ec    11400  11.4           0.001          335.19481     -275.04804      2.7296218      7965.7385      1276.7779    
ec    11500  11.5           0.001          296.4632      -274.94677      2.4142152     -8575.3653      1296.9568    
ec    11600  11.6           0.001          209.85027     -274.65314      1.7088924      5435.2628      1278.4583    
ec    11700  11.7           0.001          235.33621     -275.28961      1.9164343     -1941.0375      1286.9317    
ec    11800  11.8           0.001          201.26909     -275.26125      1.6390125     -5602.83        1291.8622    
ec    11900  11.9           0.001          254.24925     -275.28967      2.0704506      8947.4123      1273.8292    
ec    12000  12             0.001          348.83938     -275.47772      2.8407348     -9104.1767      1298.0389    
ec    12100  12.1           0.001          286.10625     -274.72529      2.3298745      6412.2569      1278.1455    
ec    12200  12.2           0.001          366.55479     -275.32324      2.9849983      441.76675      1285.5363    
ec    12300  12.3           0.001          261.17115     -274.74013      2.1268183     -7630.931       1295.6354    
ec    12400  12.4           0.001          283.65095     -275.36381      2.3098801      11451.722      1271.2479    
ec    12500  12.5           0.001          245.82705     -275.10474      2.0018654     -10266.864      1298.9739    
ec    12600  12.6           0.001          327.20494     -275.24723      2.6645572      5476.8045      1279.3602    
ec    12700  12.7           0.001          386.40031     -275.42319      3.1466081      3533.6711      1282.4711    
ec    12800  12.8           0.001          298.84901     -274.85325      2.4336438     -7430.3631      1296.5581    
ec    12900  12.9           0.001          341.96734     -275.49018      2.7847732      11291.829      1271.4703    
ec    13000  13             0.001          217.16438     -274.73845      1.768454      -10855.595      1298.6633    
ec    13100  13.1           0.001          246.64375     -274.92316      2.008516       3022.2621      1281.4588    
ec    13200  13.2           0.001          296.05407     -274.68403      2.4108835      2756.2737      1282.1425    
ec    13300  13.3           0.001          332.04545     -274.77331      2.7039753     -9248.1328      1298.3621    
ec    13400  13.4           0.001          349.70848     -275.24796      2.8478122      10501.572      1273.0255    
ec    13500  13.5           0.001          280.11966     -275.06237      2.2811234     -5896.0364      1294.2633    
ec    13600  13.6           0.001          296.85137     -275.23423      2.4173762      1360.8642      1283.9417    
ec    13700  13.7           0.001          262.89653     -274.84949      2.1408688      3680.2586      1281.1302    
ec    13800  13.8           0.001          298.69042     -274.92874      2.4323523     -7291.0267      1295.42      
ec    13900  13.9           0.001          350.54703     -274.93794      2.8546409      6419.5369      1277.6987    
ec    14000  14             0.001          404.96407     -274.8977       3.29778       -3924.7467      1292.3072    
ec    14100  14.1           0.001          395.00386     -275.34809      3.2166701      1248.6922      1285.4067    
ec    14200  14.2           0.001          278.9214      -274.88984      2.2713655      4352.2864      1281.298     
ec    14300  14.3           0.001          268.27783     -274.94891      2.1846907     -4965.5915      1291.9778    
ec    14400  14.4           0.001          281.96947     -275.08249      2.2961871      3637.6454      1281.0712    
ec    14500  14.5           0.001          240.73448     -274.55022      1.9603946     -3053.1879      1289.4095    
ec    14600  14.6           0.001          329.80627     -274.82513      2.6857408     -1089.615       1287.2603    
ec    14700  14.7           0.001          353.56016     -274.88967      2.879178       2034.6629      1283.8662    
ec    14800  14.8           0.001          314.12002     -275.28985      2.5580016     -3191.6381      1290.0395    
ec    14900  14.9           0.001          281.1058      -275.25825      2.2891539      3547.9748      1281.6758    
ec    15000  15             0.001          295.1338      -275.22099      2.4033893     -933.13037      1287.1143    
ec    15100  15.1           0.001          321.79795     -275.06494      2.620526      -1365.6128      1287.6447    
ec    15200  15.2           0.001          286.72957     -274.51738      2.3349505      1775.2504      1283.9071    
ec    15300  15.3           0.001          309.58488     -274.95405      2.5210702     -2534.6928      1289.8809    
ec    15400  15.4           0.001          278.68566     -275.35802      2.2694458      2484.1142      1282.6196    
ec    15500  15.5           0.001          291.12991     -275.43906      2.3707842     -330.59708      1286.3714    
ec    15600  15.6           0.001          302.16409     -275.11572      2.4606397     -27.412506      1286.7136    
ec    15700  15.7           0.001          354.13023     -275.22855      2.8838202      2633.439       1282.8997    
ec    15800  15.8           0.001          316.5083      -274.99089      2.5774502     -4179.2348      1290.6847    
ec    15900  15.9           0.001          277.86317     -274.87091      2.2627479      1008.7269      1284.014     
ec    16000  16             0.001          268.96672     -274.91927      2.1903006     -858.90265      1286.7222    
ec    16100  16.1           0.001          298.58638     -275.15301      2.4315051     -1691.4184      1288.0051    
ec    16200  16.2           0.001          281.09605     -274.92543      2.2890745      3202.5204      1282.2691    
ec    16300  16.3           0.001          287.4404      -274.87977      2.3407391     -2387.3631      1289.6565    
ec    16400  16.4           0.001          356.84688     -275.25519      2.905943       2509.3167      1283.3808    
ec    16500  16.5           0.001          298.47701     -274.58808      2.4306145     -37.052086      1286.6812    
ec    16600  16.6           0.001          315.76573     -274.93648      2.5714032     -2944.727       1289.6386    
ec    16700  16.7           0.001          295.57787     -275.30896      2.4070057      2896.4505      1281.621     
ec    16800  16.8           0.001          296.50164     -275.4221       2.4145283     -3044.4187      1289.6749    
ec    16900  16.9           0.001          296.14662     -275.17254      2.4116372      2264.8835      1283.4301    
ec    17000  17             0.001          338.40614     -275.02348      2.7557729      1402.9451      1285.1297    
ec    17100  17.1           0.001          365.22168     -274.9907       2.9741422     -2428.1364      1289.8253    
ec    17200  17.2           0.001          275.68126     -274.48224      2.2449798      3633.5011      1281.4563    
ec    17300  17.3           0.001          279.93846     -274.7611       2.2796478     -4850.9195      1291.6891    
ec    17400  17.4           0.001          258.4979      -274.91994      2.105049       987.98372      1284.0379    
ec    17500  17.5           0.001          271.75481     -275.19427      2.2130051      1242.8849      1283.9006    
ec    17600  17.6           0.001          301.71819     -275.28515      2.4570086     -3479.1217      1290.5289    
ec    17700  17.7           0.001          344.07525     -275.08836      2.8019386      5854.6969      1279.5235    
ec    17800  17.8           0.001          401.66144     -275.37042      3.2708854     -3549.8934      1291.1714    
ec    17900  17.9           0.001          311.29397     -274.93869      2.5349879      1185.7226      1284.7768    
ec    18000  18             0.001          278.26066     -274.9217       2.2659848      1901.2744      1283.331     
ec    18100  18.1           0.001          263.42779     -274.83917      2.145195      -5866.2262      1292.9805    
ec    18200  18.2           0.001          286.02362     -274.97381      2.3292017      5824.5555      1278.6836    
ec    18300  18.3           0.001          324.21268     -275.15886      2.6401901     -3362.2447      1290.8005    
ec    18400  18.4           0.001          330.14877     -274.94124      2.6885299      818.69307      1285.7433    
ec    18500  18.5           0.001          393.09847     -275.2748       3.2011538      3868.2309      1281.5964    
ec    18600  18.6           0.001          288.25483     -274.80399      2.3473712     -6264.5727      1294.3535    
ec    18700  18.7           0.001          239.98968     -274.90262      1.9543293      5292.1266      1278.4933    
ec    18800  18.8           0.001          266.95987     -275.13896      2.1739581     -4299.9982      1290.6632    
ec    18900  18.9           0.001          265.97857     -274.87198      2.165967      -822.56949      1287.1464    
ec    19000  19             0.001          326.34566     -275.02407      2.6575597      5279.9894      1279.6219    
ec    19100  19.1           0.001          356.89483     -275.1611       2.9063335     -6693.2102      1295.2429    
ec    19200  19.2           0.001          337.14668     -275.52789      2.7455166      6848.5189      1277.6045    
ec    19300  19.3           0.001          237.63388     -275.14055      1.9351451     -2392.8739      1288.8096    
ec    19400  19.4           0.001          253.56016     -275.09795      2.0648391     -2754.7412      1288.709     
ec    19500  19.5           0.001          323.67449     -275.14312      2.6358073      5562.3792      1278.7807    
ec    19600  19.6           0.001          279.95139     -274.56676      2.2797531     -7598.1688      1296.2524    
ec    19700  19.7           0.001          343.62776     -275.21941      2.7982946      6460.2721      1278.14      
ec    19800  19.8           0.001          313.33391     -275.57712      2.5515999     -1137.1792      1287.5227    
ec    19900  19.9           0.001          269.26921     -275.43546      2.1927639     -3085.7924      1289.5439    
ec    20000  20             0.001          247.88107     -275.05388      2.018592       7186.5289      1276.4467    
ec    20100  20.1           0.001          270.94084     -274.95327      2.2063767     -8861.2644      1296.8325    
ec    20200  20.2           0.001          275.43292     -274.74783      2.2429574      4692.0414      1279.5469    
ec    20300  20.3           0.001          285.01402     -274.74017      2.3209801     -1389.1223      1287.4151    
ec    20400  20.4           0.001          355.35975     -275.52395      2.8938327     -4447.6022      1291.7902    
ec    20500  20.5           0.001          280.82136     -275.45374      2.2868376      8928.3168      1274.6351    
ec    20600  20.6           0.001          296.04301     -275.56413      2.4107934     -8155.1603      1296.1478    
ec    20700  20.7           0.001          272.63571     -274.90328      2.2201787      5356.8007      1279.3708    
ec    20800  20.8           0.001          282.63324     -274.76103      2.3015925      360.54471      1285.5497    
ec    20900  20.9           0.001          304.00953     -274.95559      2.4756679     -6511.1443      1294.3625    
ec    21000  21             0.001          258.4221      -274.74892      2.1044318      9338.1497      1274.1931    
ec    21100  21.1           0.001          318.13993     -275.69802      2.5907372     -7837.7767      1295.8088    
ec    21200  21.2           0.001          268.22979     -275.65313      2.1842996      4522.5493      1279.7169    
ec    21300  21.3           0.001          306.0635      -275.60796      2.4923942      2576.1683      1282.3417    
ec    21400  21.4           0.001          266.0716      -274.88587      2.1667245     -7504.1399      1295.3236    
ec    21500  21.5           0.001          301.74041     -275.02511      2.4571895      8808.6177      1274.1618    
ec    21600  21.6           0.001          300.83749     -274.89968      2.4498368     -8751.2179      1296.58      
ec    21700  21.7           0.001          242.56215     -274.42997      1.975278       2328.9045      1282.9455    
ec    21800  21.8           0.001          333.79038     -275.44347      2.718185       3489.8643      1281.323     
ec    21900  21.9           0.001          259.95263     -275.21997      2.1168954     -7555.8439      1295.6052    
ec    22000  22             0.001          265.58498     -275.23655      2.1627618      10046.639      1273.1708    
ec    22100  22.1           0.001          324.26368     -275.06162      2.6406053     -6651.6526      1294.5274    
ec    22200  22.2           0.001          319.74463     -274.85721      2.6038049      990.14095      1284.7462    
ec    22300  22.3           0.001          294.04418     -274.87997      2.3945162      3964.6079      1280.565     
ec    22400  22.4           0.001          289.55064     -275.19186      2.3579235     -8084.4034      1296.1568    
ec    22500  22.5           0.001          320.82002     -275.61137      2.6125623      8487.4753      1274.8454    
ec    22600  22.6           0.001          287.42753     -275.0816       2.3406343     -4117.2468      1291.6627    
ec    22700  22.7           0.001          345.01355     -274.90306      2.8095796      477.07615      1286.1167    
ec    22800  22.8           0.001          344.37979     -274.96034      2.8044186      5020.1282      1279.8363    
ec    22900  22.9           0.001          247.69093     -274.66307      2.0170436     -8407.924       1296.2021    
ec    23000  23             0.001          261.21035     -275.0123       2.1271375      6283.2063      1277.1751    
ec    23100  23.1           0.001          254.62718     -274.91098      2.0735282     -3894.0858      1290.4423    
ec    23200  23.2           0.001          304.8971      -275.1327       2.4828957     -1640.5381      1287.5522    
ec    23300  23.3           0.001          307.65058     -275.01363      2.5053184      5645.8573      1279.2045    
ec    23400  23.4           0.001          333.0804      -275.21837      2.7124033     -5860.9722      1294.1224    
ec    23500  23.5           0.001          320.99511     -275.20177      2.6139881      5735.3924      1278.8684    
ec    23600  23.6           0.001          270.89475     -274.92334      2.2060014     -2394.6067      1288.7314    
ec    23700  23.7           0.001          308.57747     -275.34851      2.5128664     -2345.2483      1288.3805    
ec    23800  23.8           0.001          243.13935     -274.90657      1.9799784      4638.1211      1279.5118    
ec    23900  23.9           0.001          314.9602      -275.31267      2.5648435     -5635.5895      1293.0225    
ec    24000  24             0.001          339.77211     -275.05863      2.7668965      4917.0948      1280.4509    
ec    24100  24.1           0.001          336.95656     -274.87158      2.7439684     -495.99938      1287.3339    
ec    24200  24.2           0.001          324.98401     -275.20679      2.6464713     -2352.8215      1289.0606    
ec    24300  24.3           0.001          244.16129     -275.08029      1.9883004      4731.5412      1279.645     
ec    24400  24.4           0.001          262.82735     -275.13325      2.1403054     -5449.4402      1292.3585    
ec    24500  24.5           0.001          238.80496     -274.608        1.9446817      2493.313       1282.2649    
ec    24600  24.6           0.001          344.2712      -275.1739       2.8035344     -199.94655      1286.3143    
ec    24700  24.7           0.001          314.50799     -274.93421      2.5611609     -2609.7563      1289.5626    
ec    24800  24.8           0.001          283.68543     -275.2946       2.3101609      4872.4084      1279.5391    
ec    24900  24.9           0.001          309.65339     -275.8484       2.5216281     -4422.3065      1290.8462    
ec    25000  25             0.001          225.17806     -274.84769      1.8337125      2315.1662      1282.5798    
ec    25100  25.1           0.001          294.9412      -274.99224      2.401821      -69.466279      1285.852     
ec    25200  25.2           0.001          294.42563     -274.83285      2.3976225     -3381.235       1290.3043    
ec    25300  25.3           0.001          315.31604     -275.04713      2.5677412      5065.2773      1280.0259    
ec    25400  25.4           0.001          280.68402     -275.28244      2.2857192     -3882.5158      1290.8072    
ec    25500  25.5           0.001          287.85907     -275.69027      2.3441484      2596.7216      1282.5149    
ec    25600  25.6           0.001          284.68617     -275.40276      2.3183103      1416.8782      1283.863     
ec    25700  25.7           0.001          247.57797     -274.76696      2.0161238     -3824.6868      1290.8949    
ec    25800  25.8           0.001          306.18605     -275.08386      2.4933921      4147.7906      1280.2483    
ec    25900  25.9           0.001          299.91747     -274.96083      2.4423447     -4663.3768      1291.6935    
ec    26000  26             0.001          311.28623     -275.05519      2.5349249      1162.6705      1284.483     
ec    26100  26.1           0.001          324.74224     -275.42796      2.6445024      2140.7579      1282.9915    
ec    26200  26.2           0.001          262.03996     -275.20242      2.1338933     -4730.2187      1291.8518    
ec    26300  26.3           0.001          282.74299     -275.3049       2.3024862      6246.1711      1277.7895    
ec    26400  26.4           0.001          267.57537     -274.61975      2.1789704     -4477.4709      1292.0653    
ec    26500  26.5           0.001          299.51583     -274.67224      2.439074       7.0618638      1285.9808    
ec    26600  26.6           0.001          323.95822     -275.06071      2.6381179      3864.193       1281.3329    
ec    26700  26.7           0.001          287.43439     -275.02225      2.3406901     -7186.9853      1295.4775    
ec    26800  26.8           0.001          320.47536     -275.39563      2.6097555      8948.4295      1274.8892    
ec    26900  26.9           0.001          302.76225     -275.22463      2.4655108     -5184.0962      1292.7988    
ec    27000  27             0.001          356.82825     -275.60022      2.9057913     -156.40809      1286.2364    
ec    27100  27.1           0.001          278.50896     -274.85542      2.2680068      6980.361       1277.0858    
ec    27200  27.2           0.001          306.28232     -274.89225      2.4941761     -12321.767      1301.8548    
ec    27300  27.3           0.001          332.54257     -274.91531      2.7080235      11015.463      1272.1688    
ec    27400  27.4           0.001          249.47393     -274.31096      2.0315633     -6092.673       1294.4323    
ec    27500  27.5           0.001          288.68436     -275.12248      2.3508691     -2175.7949      1289.142     
ec    27600  27.6           0.001          291.52876     -275.36941      2.3740322      11253.67       1271.9142    
ec    27700  27.7           0.001          267.82769     -274.99787      2.1810251     -14129.615      1304.5096    
ec    27800  27.8           0.001          322.40284     -274.84966      2.6254518      12319.72       1270.8483    
ec    27900  27.9           0.001          366.86484     -275.09103      2.9875232     -5126.6926      1292.812     
ec    28000  28             0.001          299.69437     -274.82981      2.4405279     -5486.7204      1292.8676    
ec    28100  28.1           0.001          310.53277     -275.18584      2.5287892      12040.482      1270.9955    
ec    28200  28.2           0.001          305.65817     -275.31517      2.4890934     -12987.439      1302.9824    
ec    28300  28.3           0.001          310.95124     -275.3109       2.5321969      10087.945      1273.6193    
ec    28400  28.4           0.001          324.0119      -274.73103      2.638555      -1771.1067      1289.1582    
ec    28500  28.5           0.001          327.79064     -274.67589      2.6693268     -4984.5276      1293.1848    
ec    28600  28.6           0.001          268.39417     -274.67658      2.1856381      8921.5026      1274.6159    
ec    28700  28.7           0.001          240.86689     -274.7598       1.9614728     -9971.9929      1298.4462    
ec    28800  28.8           0.001          303.80759     -275.28143      2.4740235      5514.8905      1278.7602    
ec    28900  28.9           0.001          278.06987     -274.89442      2.2644312     -346.34656      1286.3885    
ec    29000  29             0.001          378.44581     -275.10858      3.0818315     -4206.4005      1292.1823    
ec    29100  29.1           0.001          414.6524      -274.95684      3.3766758      7445.375       1277.8467    
ec    29200  29.2           0.001          316.64665     -274.63916      2.5785769     -6124.6459      1294.7391    
ec    29300  29.3           0.001          339.42192     -275.2007       2.7640447      2698.2853      1282.3434    
ec    29400  29.4           0.001          279.35735     -275.01119      2.2749156      497.59212      1285.3974    
ec    29500  29.5           0.001          260.92886     -275.02649      2.1248452     -4072.3644      1291.1123    
ec    29600  29.6           0.001          285.61855     -275.17061      2.325903       5954.0854      1278.5265    
ec    29700  29.7           0.001          324.61327     -274.94087      2.6434522     -4571.1871      1292.5382    
ec    29800  29.8           0.001          349.98838     -274.8881       2.8500915      2638.7154      1283.5769    
ec    29900  29.9           0.001          284.84377     -274.74254      2.3195937      1286.1776      1284.5113    
Fix halt condition for fix-id myhalt met on step 30000 with value 30 (../fix_halt.cpp:240)
ec    30000  30             0.001          307.21881     -275.35694      2.5018023     -5065.9161      1291.885     
Loop time of 1.19816 on 2 procs for 30000 steps with 64 atoms

Performance: 2163.314 ns/day, 0.011 hours/ns, 25038.356 timesteps/s, 1.602 Matom-step/s
100.0% CPU use with 2 MPI tasks x no OpenMP threads

MPI task timing breakdown:
Section |  min time  |  avg time  |  max time  |%varavg| %total
---------------------------------------------------------------
Pair    | 0.87083    | 0.87164    | 0.87246    |   0.1 | 72.75
Neigh   | 0          | 0          | 0          |   0.0 |  0.00
Comm    | 0.22248    | 0.22301    | 0.22355    |   0.1 | 18.61
Output  | 0.0019567  | 0.0029937  | 0.0040308  |   1.9 |  0.25
Modify  | 0.080099   | 0.080597   | 0.081095   |   0.2 |  6.73
Other   |            | 0.01991    |            |       |  1.66

Nlocal:             32 ave          32 max          32 min
Histogram: 2 0 0 0 0 0 0 0 0 0
Nghost:            444 ave         444 max         444 min
Histogram: 2 0 0 0 0 0 0 0 0 0
Neighs:              0 ave           0 max           0 min
Histogram: 2 0 0 0 0 0 0 0 0 0
FullNghs:         1088 ave        1088 max        1088 min
Histogram: 2 0 0 0 0 0 0 0 0 0

Total # of neighbors = 2176
Ave neighs/atom = 34
Neighbor list builds = 0
Dangerous builds = 0

unfix myhalt

fix myhalt all halt 100 v_t >= 60.0 error continue

unfix NPT

fix NVT all nvt temp ${temp} ${temp} ${tau_T}
fix NVT all nvt temp 300 ${temp} ${tau_T}
fix NVT all nvt temp 300 300 ${tau_T}
fix NVT all nvt temp 300 300 0.1

run 10000000
Per MPI rank memory allocation (min/avg/max) = 3.57 | 3.57 | 3.57 Mbytes
   Step          Time            Dt            Temp          PotEng         KinEng         Press          Volume    
ec    30000  30             0.001          307.21881     -275.35694      2.5018023     -5065.9161      1291.885     
ec    30100  30.1           0.001          254.50093     -274.86915      2.0725001     -4852.6289      1291.885     
ec    30200  30.2           0.001          295.47783     -274.68784      2.4061909     -4522.7874      1291.885     
ec    30300  30.3           0.001          399.6725      -275.1157       3.2546887     -4054.6567      1291.885     
ec    30400  30.4           0.001          334.27876     -274.8988       2.722162      -3904.7249      1291.885     
ec    30500  30.5           0.001          335.64055     -275.19352      2.7332516     -3939.8932      1291.885     
ec    30600  30.6           0.001          286.94429     -274.97122      2.336699      -4366.8097      1291.885     
ec    30700  30.7           0.001          292.39942     -275.13852      2.3811223     -4583.5283      1291.885     
ec    30800  30.8           0.001          264.63599     -274.97096      2.1550339     -4570.3168      1291.885     
ec    30900  30.9           0.001          260.92327     -274.80042      2.1247998     -4432.8925      1291.885     
ec    31000  31             0.001          350.88102     -275.15153      2.8573607     -4345.5455      1291.885     
ec    31100  31.1           0.001          366.63016     -275.11403      2.9856121     -3997.7683      1291.885     
ec    31200  31.2           0.001          315.22369     -275.09099      2.5669892     -4275.3442      1291.885     
ec    31300  31.3           0.001          282.58232     -275.33108      2.3011778     -4812.7901      1291.885     
ec    31400  31.4           0.001          289.70088     -275.33788      2.359147      -4872.3537      1291.885     
ec    31500  31.5           0.001          259.8573      -274.8062       2.1161191     -4641.1091      1291.885     
ec    31600  31.6           0.001          276.96007     -274.72416      2.2553936     -4395.7695      1291.885     
ec    31700  31.7           0.001          318.27737     -275.0482       2.5918565     -4224.0566      1291.885     
ec    31800  31.8           0.001          317.01166     -275.11454      2.5815493     -4155.3782      1291.885     
ec    31900  31.9           0.001          274.39524     -274.85593      2.2345072     -4309.7101      1291.885     
ec    32000  32             0.001          296.99828     -275.14733      2.4185725     -4451.6589      1291.885     
ec    32100  32.1           0.001          292.7636      -275.34864      2.3840879     -4885.3759      1291.885     
ec    32200  32.2           0.001          276.59961     -275.38654      2.2524583     -5015.5879      1291.885     
ec    32300  32.3           0.001          271.70298     -275.05546      2.2125831     -4679.1897      1291.885     
ec    32400  32.4           0.001          344.36545     -275.14177      2.8043019     -4241.6499      1291.885     
ec    32500  32.5           0.001          325.43355     -274.92491      2.650132      -4072.2828      1291.885     
ec    32600  32.6           0.001          294.90552     -274.93481      2.4015304     -4006.9172      1291.885     
ec    32700  32.7           0.001          263.06879     -275.19113      2.1422715     -4693.4615      1291.885     
ec    32800  32.8           0.001          241.59874     -275.38728      1.9674326     -5289.8462      1291.885     
ec    32900  32.9           0.001          251.0165      -275.31119      2.0441251     -5084.0656      1291.885     
ec    33000  33             0.001          277.3589      -274.85425      2.2586414     -4493.2912      1291.885     
ec    33100  33.1           0.001          341.3573      -275.01083      2.7798053     -4289.7594      1291.885     
ec    33200  33.2           0.001          326.60873     -274.92838      2.659702      -4251.4159      1291.885     
ec    33300  33.3           0.001          335.11944     -275.40425      2.729008      -4215.172       1291.885     
ec    33400  33.4           0.001          288.9854      -275.3466       2.3533206     -4740.9533      1291.885     
ec    33500  33.5           0.001          267.6026      -275.11448      2.1791921     -4684.305       1291.885     
ec    33600  33.6           0.001          331.10945     -274.88427      2.6963531     -4405.2492      1291.885     
ec    33700  33.7           0.001          298.35203     -274.4771       2.4295966     -4018.2314      1291.885     
ec    33800  33.8           0.001          279.60165     -274.67364      2.2769051     -4105.2081      1291.885     
ec    33900  33.9           0.001          314.9766      -275.31496      2.564977      -4385.0426      1291.885     
ec    34000  34             0.001          309.83664     -275.37482      2.5231203     -4461.9465      1291.885     
ec    34100  34.1           0.001          305.36994     -275.16429      2.4867462     -4626.0955      1291.885     
ec    34200  34.2           0.001          341.27324     -274.65231      2.7791208     -3959.1398      1291.885     
ec    34300  34.3           0.001          354.30969     -274.8226       2.8852817     -4483.4485      1291.885     
ec    34400  34.4           0.001          279.26275     -274.70733      2.2741453     -4531.4501      1291.885     
ec    34500  34.5           0.001          284.76602     -275.00712      2.3189605     -4624.7204      1291.885     
ec    34600  34.6           0.001          325.00897     -275.40979      2.6466745     -4328.7154      1291.885     
ec    34700  34.7           0.001          286.23838     -275.0005       2.3309505     -4262.5202      1291.885     
ec    34800  34.8           0.001          336.24113     -274.79277      2.7381424     -3914.4471      1291.885     
ec    34900  34.9           0.001          314.72146     -274.4485       2.5628993     -3784.2362      1291.885     
ec    35000  35             0.001          293.71277     -274.81943      2.3918174     -4442.6198      1291.885     
ec    35100  35.1           0.001          293.43144     -275.10141      2.3895264     -4604.518       1291.885     
ec    35200  35.2           0.001          313.45601     -275.27376      2.5525943     -4564.1677      1291.885     
ec    35300  35.3           0.001          332.36923     -275.30978      2.706612      -4297.618       1291.885     
ec    35400  35.4           0.001          351.15691     -275.07161      2.8596073     -4030.5988      1291.885     
ec    35500  35.5           0.001          372.01303     -274.8172       3.0294469     -3824.8244      1291.885     
ec    35600  35.6           0.001          265.26824     -274.40517      2.1601825     -4342.3047      1291.885     
ec    35700  35.7           0.001          279.72875     -275.04235      2.27794       -4950.739       1291.885     
ec    35800  35.8           0.001          273.43411     -275.0154       2.2266804     -4754.4644      1291.885     
ec    35900  35.9           0.001          266.57041     -274.79036      2.1707866     -4317.7656      1291.885     
ec    36000  36             0.001          344.7641      -275.05904      2.8075482     -4133.1322      1291.885     
ec    36100  36.1           0.001          396.52046     -275.13058      3.2290204     -3708.8483      1291.885     
ec    36200  36.2           0.001          337.40168     -274.90261      2.7475932     -3856.155       1291.885     
ec    36300  36.3           0.001          272.07145     -275.04951      2.2155837     -4626.4678      1291.885     
ec    36400  36.4           0.001          314.97171     -275.49749      2.5649372     -5105.94        1291.885     
ec    36500  36.5           0.001          284.64656     -275.02146      2.3179877     -4749.0201      1291.885     
ec    36600  36.6           0.001          292.23227     -274.60199      2.3797611     -4051.1752      1291.885     
ec    36700  36.7           0.001          329.86584     -274.76117      2.6862259     -3970.8165      1291.885     
ec    36800  36.8           0.001          280.70071     -275.08599      2.2858551     -4321.9013      1291.885     
ec    36900  36.9           0.001          274.02375     -275.33261      2.231482      -4770.6253      1291.885     
ec    37000  37             0.001          262.65427     -274.98988      2.138896      -4541.5945      1291.885     
ec    37100  37.1           0.001          309.45198     -274.94957      2.5199879     -4626.4471      1291.885     
ec    37200  37.2           0.001          353.66583     -275.14908      2.8800385     -4612.1315      1291.885     
ec    37300  37.3           0.001          278.80849     -274.80549      2.2704461     -4605.6574      1291.885     
ec    37400  37.4           0.001          281.52951     -275.46021      2.2926044     -4742.5454      1291.885     
ec    37500  37.5           0.001          282.33583     -275.4346       2.2991705     -4594.7176      1291.885     
ec    37600  37.6           0.001          312.11437     -275.35697      2.5416688     -4691.4599      1291.885     
ec    37700  37.7           0.001          251.16266     -274.59175      2.0453153     -4265.4264      1291.885     
ec    37800  37.8           0.001          283.24174     -274.76409      2.3065477     -4538.2527      1291.885     
ec    37900  37.9           0.001          326.71683     -275.19708      2.6605823     -4654.5187      1291.885     
ec    38000  38             0.001          208.00216     -274.77838      1.6938425     -4858.603       1291.885     
ec    38100  38.1           0.001          283.10186     -275.69387      2.3054086     -4909.7681      1291.885     
ec    38200  38.2           0.001          307.04269     -275.53521      2.5003681     -4761.9967      1291.885     
ec    38300  38.3           0.001          332.48717     -275.3385       2.7075724     -4353.1674      1291.885     
ec    38400  38.4           0.001          308.43134     -275.00138      2.5116765     -4338.0565      1291.885     
ec    38500  38.5           0.001          287.99614     -274.83433      2.3452647     -4712.8226      1291.885     
ec    38600  38.6           0.001          288.18002     -275.06287      2.346762      -4933.2034      1291.885     
ec    38700  38.7           0.001          219.90182     -274.99232      1.7907461     -4778.0336      1291.885     
ec    38800  38.8           0.001          281.66907     -275.48227      2.2937409     -4695.2838      1291.885     
ec    38900  38.9           0.001          299.31771     -275.07103      2.4374606     -4450.7543      1291.885     
ec    39000  39             0.001          336.12347     -275.14742      2.7371842     -4085.799       1291.885     
ec    39100  39.1           0.001          305.01165     -274.97253      2.4838285     -4332.5119      1291.885     
ec    39200  39.2           0.001          284.67833     -275.0424       2.3182464     -4863.4031      1291.885     
ec    39300  39.3           0.001          278.87952     -275.38491      2.2710244     -5401.4222      1291.885     
ec    39400  39.4           0.001          238.82585     -275.33345      1.9448518     -5229.5941      1291.885     
ec    39500  39.5           0.001          287.39543     -275.34126      2.3403728     -4862.2782      1291.885     
ec    39600  39.6           0.001          319.31643     -275.04268      2.600318      -4091.5351      1291.885     
ec    39700  39.7           0.001          335.46798     -275.0847       2.7318463     -4022.9722      1291.885     
ec    39800  39.8           0.001          291.59405     -274.9156       2.3745638     -4502.4781      1291.885     
ec    39900  39.9           0.001          255.64123     -275.0374       2.081786      -4763.8963      1291.885     
ec    40000  40             0.001          268.15143     -275.38594      2.1836615     -5145.5242      1291.885     
ec    40100  40.1           0.001          250.25972     -274.87191      2.0379623     -4757.7027      1291.885     
ec    40200  40.2           0.001          372.36512     -275.26362      3.0323141     -4583.8378      1291.885     
ec    40300  40.3           0.001          349.05498     -275.11418      2.8424906     -3991.8673      1291.885     
ec    40400  40.4           0.001          305.62676     -275.15591      2.4888377     -4543.2024      1291.885     
ec    40500  40.5           0.001          303.18305     -275.45644      2.4689375     -5049.2519      1291.885     
ec    40600  40.6           0.001          230.44396     -274.83397      1.8765948     -4971.8025      1291.885     
ec    40700  40.7           0.001          330.31102     -274.8206       2.6898512     -4597.4874      1291.885     
ec    40800  40.8           0.001          278.16209     -274.32324      2.2651821     -4278.144       1291.885     
ec    40900  40.9           0.001          308.95448     -274.97002      2.5159366     -4305.5549      1291.885     
ec    41000  41             0.001          309.08791     -275.30405      2.5170231     -4411.3331      1291.885     
ec    41100  41.1           0.001          284.82924     -275.16598      2.3194753     -4545.7182      1291.885     
ec    41200  41.2           0.001          338.1965      -275.35179      2.7540657     -4466.9586      1291.885     
ec    41300  41.3           0.001          337.98772     -274.58158      2.7523655     -4183.6988      1291.885     
ec    41400  41.4           0.001          384.28692     -275.06738      3.1293979     -4492.3127      1291.885     
ec    41500  41.5           0.001          263.33365     -274.54593      2.1444284     -4547.5735      1291.885     
ec    41600  41.6           0.001          321.32602     -275.27583      2.6166828     -4444.3122      1291.885     
ec    41700  41.7           0.001          322.10218     -275.39611      2.6230034     -4504.2037      1291.885     
ec    41800  41.8           0.001          258.99793     -274.83189      2.1091209     -4419.1373      1291.885     
ec    41900  41.9           0.001          315.73902     -274.72424      2.5711857     -4361.9322      1291.885     
ec    42000  42             0.001          321.67917     -274.5422       2.6195587     -4208.4773      1291.885     
ec    42100  42.1           0.001          294.91838     -274.81523      2.4016351     -4615.7282      1291.885     
ec    42200  42.2           0.001          244.255       -274.74413      1.9890635     -4845.9261      1291.885     
ec    42300  42.3           0.001          341.64697     -275.53293      2.7821642     -4761.6251      1291.885     
ec    42400  42.4           0.001          323.26004     -275.23982      2.6324323     -4541.9504      1291.885     
ec    42500  42.5           0.001          342.80922     -274.99716      2.7916289     -3961.3618      1291.885     
ec    42600  42.6           0.001          386.12709     -274.8209       3.1443831     -3948.9777      1291.885     
ec    42700  42.7           0.001          312.23597     -274.66028      2.542659      -4330.1309      1291.885     
ec    42800  42.8           0.001          279.47829     -274.93328      2.2759005     -4926.37        1291.885     
ec    42900  42.9           0.001          266.57421     -274.89587      2.1708176     -4681.8363      1291.885     
ec    43000  43             0.001          299.3732      -275.10986      2.4379125     -4566.2627      1291.885     
ec    43100  43.1           0.001          305.80925     -274.96096      2.4903237     -4559.8538      1291.885     
ec    43200  43.2           0.001          335.22006     -274.88191      2.7298274     -4014.7078      1291.885     
ec    43300  43.3           0.001          372.8347      -275.0889       3.0361381     -4497.7132      1291.885     
ec    43400  43.4           0.001          271.55564     -274.84705      2.2113833     -4840.3438      1291.885     
ec    43500  43.5           0.001          267.45465     -275.1593       2.1779873     -5381.2764      1291.885     
ec    43600  43.6           0.001          304.81661     -275.36225      2.4822403     -5111.0896      1291.885     
ec    43700  43.7           0.001          266.06054     -274.64427      2.1666345     -4700.6547      1291.885     
ec    43800  43.8           0.001          371.93404     -275.12193      3.0288037     -4074.5253      1291.885     
ec    43900  43.9           0.001          335.52019     -275.0248       2.7322715     -4030.602       1291.885     
ec    44000  44             0.001          266.82758     -275.27549      2.1728808     -4890.5505      1291.885     
ec    44100  44.1           0.001          244.889       -275.09322      1.9942264     -4912.5073      1291.885     
ec    44200  44.2           0.001          289.65209     -275.0186       2.3587497     -4803.4089      1291.885     
ec    44300  44.3           0.001          325.43063     -274.9505       2.6501082     -4718.3583      1291.885     
ec    44400  44.4           0.001          275.73917     -274.56586      2.2454514     -4637.0566      1291.885     
ec    44500  44.5           0.001          355.89696     -275.68172      2.8982075     -4566.6462      1291.885     
ec    44600  44.6           0.001          278.19231     -275.46689      2.2654282     -4943.1988      1291.885     
ec    44700  44.7           0.001          266.36247     -275.22104      2.1690933     -4945.8167      1291.885     
ec    44800  44.8           0.001          295.81168     -275.16937      2.4089096     -4975.4062      1291.885     
ec    44900  44.9           0.001          268.64687     -274.7277       2.187696      -4623.6708      1291.885     
ec    45000  45             0.001          262.69698     -274.59558      2.1392437     -4614.8577      1291.885     
ec    45100  45.1           0.001          308.64551     -275.08012      2.5134205     -4570.3835      1291.885     
ec    45200  45.2           0.001          289.17895     -275.54517      2.3548967     -4838.7968      1291.885     
ec    45300  45.3           0.001          239.425       -275.21684      1.9497309     -4835.3039      1291.885     
ec    45400  45.4           0.001          335.48471     -275.54112      2.7319825     -4459.3975      1291.885     
ec    45500  45.5           0.001          324.652       -275.14581      2.6437675     -4544.1865      1291.885     
ec    45600  45.6           0.001          284.22331     -274.78495      2.314541      -4719.9769      1291.885     
ec    45700  45.7           0.001          299.45277     -275.03616      2.4385604     -4911.2782      1291.885     
ec    45800  45.8           0.001          275.79271     -275.33109      2.2458874     -4865.6978      1291.885     
ec    45900  45.9           0.001          244.66011     -275.35255      1.9923625     -4945.1762      1291.885     
ec    46000  46             0.001          270.58871     -275.1945       2.2035092     -4665.0234      1291.885     
ec    46100  46.1           0.001          317.08378     -275.20228      2.5821366     -4542.6994      1291.885     
ec    46200  46.2           0.001          278.15093     -274.81287      2.2650913     -4412.4087      1291.885     
ec    46300  46.3           0.001          292.96573     -274.92852      2.385734      -4560.1862      1291.885     
ec    46400  46.4           0.001          312.46877     -275.17181      2.5445548     -4770.4766      1291.885     
ec    46500  46.5           0.001          264.11982     -275.05336      2.1508305     -4938.0218      1291.885     
ec    46600  46.6           0.001          285.61465     -275.43374      2.3258712     -4970.2939      1291.885     
ec    46700  46.7           0.001          305.12932     -275.38647      2.4847868     -4538.2082      1291.885     
ec    46800  46.8           0.001          323.66315     -274.94204      2.635715      -3990.1572      1291.885     
ec    46900  46.9           0.001          336.09894     -274.96922      2.7369845     -4474.5878      1291.885     
ec    47000  47             0.001          275.99569     -274.76482      2.2475403     -4680.028       1291.885     
ec    47100  47.1           0.001          252.71112     -274.91984      2.057925      -4831.9019      1291.885     
ec    47200  47.2           0.001          259.50089     -275.12632      2.1132167     -4724.6832      1291.885     
ec    47300  47.3           0.001          294.32863     -275.27365      2.3968326     -4687.4853      1291.885     
ec    47400  47.4           0.001          332.60641     -275.09093      2.7085434     -4185.3608      1291.885     
ec    47500  47.5           0.001          349.55044     -274.98924      2.8465253     -3783.3211      1291.885     
ec    47600  47.6           0.001          318.15975     -274.96733      2.5908987     -4471.848       1291.885     
ec    47700  47.7           0.001          291.06881     -275.24253      2.3702866     -4929.8619      1291.885     
ec    47800  47.8           0.001          260.52173     -275.11801      2.1215298     -5240.2813      1291.885     
ec    47900  47.9           0.001          267.36938     -274.94394      2.1772929     -4820.8508      1291.885     
ec    48000  48             0.001          332.24732     -274.90041      2.7056192     -4335.0936      1291.885     
ec    48100  48.1           0.001          381.89347     -274.89166      3.1099071     -3529.3034      1291.885     
ec    48200  48.2           0.001          293.51518     -275.10234      2.3902083     -4294.9854      1291.885     
ec    48300  48.3           0.001          267.3869      -275.23591      2.1774356     -4723.1161      1291.885     
ec    48400  48.4           0.001          294.13475     -275.30371      2.3952538     -4832.042       1291.885     
ec    48500  48.5           0.001          279.44307     -274.75174      2.2756136     -4977.6174      1291.885     
ec    48600  48.6           0.001          307.24778     -274.70617      2.5020382     -4460.7237      1291.885     
ec    48700  48.7           0.001          338.67966     -275.11276      2.7580003     -4523.6919      1291.885     
ec    48800  48.8           0.001          301.74557     -275.36013      2.4572316     -4649.2097      1291.885     
ec    48900  48.9           0.001          245.23483     -275.05841      1.9970426     -4868.9315      1291.885     
ec    49000  49             0.001          320.11127     -275.48371      2.6067906     -4689.644       1291.885     
ec    49100  49.1           0.001          263.49948     -274.84382      2.1457788     -4820.419       1291.885     
ec    49200  49.2           0.001          273.22344     -274.80871      2.2249648     -4632.1842      1291.885     
ec    49300  49.3           0.001          308.07778     -275.03032      2.5087973     -4524.8399      1291.885     
ec    49400  49.4           0.001          314.76549     -275.10433      2.5632579     -4549.6531      1291.885     
ec    49500  49.5           0.001          321.0623      -275.3686       2.6145353     -4706.4519      1291.885     
ec    49600  49.6           0.001          286.48324     -275.28032      2.3329445     -4546.4546      1291.885     
ec    49700  49.7           0.001          318.55273     -275.45799      2.5940988     -4704.2565      1291.885     
ec    49800  49.8           0.001          287.45773     -274.75341      2.3408802     -5241.2716      1291.885     
ec    49900  49.9           0.001          305.04752     -274.6067       2.4841207     -4583.3633      1291.885     
ec    50000  50             0.001          294.04683     -274.76413      2.3945377     -4607.6828      1291.885     
ec    50100  50.1           0.001          262.3835      -275.00616      2.136691      -4693.0658      1291.885     
ec    50200  50.2           0.001          296.79367     -275.35561      2.4169063     -4898.0497      1291.885     
ec    50300  50.3           0.001          293.96038     -275.15267      2.3938338     -4590.1342      1291.885     
ec    50400  50.4           0.001          313.89279     -274.99513      2.5561512     -4584.4727      1291.885     
ec    50500  50.5           0.001          330.96444     -274.91213      2.6951723     -4528.1202      1291.885     
ec    50600  50.6           0.001          294.91691     -274.78474      2.4016232     -4703.3113      1291.885     
ec    50700  50.7           0.001          267.08121     -275.21679      2.1749462     -5461.8473      1291.885     
ec    50800  50.8           0.001          287.64569     -275.42836      2.3424108     -4963.2196      1291.885     
ec    50900  50.9           0.001          307.23143     -275.24618      2.5019051     -4440.8646      1291.885     
ec    51000  51             0.001          325.6978      -275.09495      2.6522839     -4067.7356      1291.885     
ec    51100  51.1           0.001          307.04116     -274.92874      2.5003557     -4545.1645      1291.885     
ec    51200  51.2           0.001          310.14015     -275.06619      2.5255919     -4696.9522      1291.885     
ec    51300  51.3           0.001          260.48935     -274.80932      2.1212661     -4947.6469      1291.885     
ec    51400  51.4           0.001          271.52647     -275.10063      2.2111457     -5083.6108      1291.885     
ec    51500  51.5           0.001          262.7636      -275.48397      2.1397862     -5285.6787      1291.885     
ec    51600  51.6           0.001          289.49888     -275.62257      2.357502      -5383.4096      1291.885     
ec    51700  51.7           0.001          307.80644     -275.2042       2.5065876     -4621.1471      1291.885     
ec    51800  51.8           0.001          289.10938     -274.8343       2.3543302     -4466.9436      1291.885     
ec    51900  51.9           0.001          320.32769     -275.06282      2.608553      -4719.3615      1291.885     
ec    52000  52             0.001          263.37792     -274.79872      2.1447889     -5277.9855      1291.885     
ec    52100  52.1           0.001          259.54631     -275.25461      2.1135866     -5130.1319      1291.885     
ec    52200  52.2           0.001          243.62914     -275.2609       1.9839669     -5073.8426      1291.885     
ec    52300  52.3           0.001          351.19073     -275.57544      2.8598827     -4509.5765      1291.885     
ec    52400  52.4           0.001          315.1523      -274.9738       2.5664078     -4306.0925      1291.885     
ec    52500  52.5           0.001          324.84994     -275.11205      2.6453794     -4138.9775      1291.885     
ec    52600  52.6           0.001          334.06083     -275.40719      2.7203874     -4810.2305      1291.885     
ec    52700  52.7           0.001          248.9503      -275.02934      2.0272992     -5307.2429      1291.885     
ec    52800  52.8           0.001          251.45707     -275.26932      2.0477128     -5357.9169      1291.885     
ec    52900  52.9           0.001          233.16788     -274.91933      1.8987768     -4968.4454      1291.885     
ec    53000  53             0.001          337.46814     -275.15394      2.7481344     -4425.1738      1291.885     
ec    53100  53.1           0.001          308.61447     -274.77674      2.5131677     -4551.9595      1291.885     
ec    53200  53.2           0.001          317.47747     -275.07118      2.5853426     -4137.8919      1291.885     
ec    53300  53.3           0.001          294.58494     -275.39271      2.3989198     -5033.6153      1291.885     
ec    53400  53.4           0.001          253.68197     -275.21986      2.065831      -5080.1141      1291.885     
ec    53500  53.5           0.001          270.40389     -275.0445       2.2020041     -4996.1247      1291.885     
ec    53600  53.6           0.001          287.99034     -274.91953      2.3452174     -4581.3475      1291.885     
ec    53700  53.7           0.001          317.14116     -275.11636      2.5826039     -4517.0437      1291.885     
ec    53800  53.8           0.001          347.9094      -275.40351      2.8331616     -4261.7564      1291.885     
ec    53900  53.9           0.001          294.63211     -275.08269      2.3993039     -4253.6992      1291.885     
ec    54000  54             0.001          283.63772     -275.1139       2.3097723     -5033.6594      1291.885     
ec    54100  54.1           0.001          275.8832      -275.06362      2.2466242     -4786.9112      1291.885     
ec    54200  54.2           0.001          256.6         -274.61691      2.0895937     -4617.47        1291.885     
ec    54300  54.3           0.001          318.82566     -274.71513      2.5963214     -4021.2211      1291.885     
ec    54400  54.4           0.001          341.3209      -274.94109      2.7795089     -4429.8168      1291.885     
ec    54500  54.5           0.001          359.09926     -275.77262      2.924285      -4620.7844      1291.885     
ec    54600  54.6           0.001          250.99354     -275.05032      2.043938      -4835.623       1291.885     
ec    54700  54.7           0.001          286.40362     -275.13004      2.3322962     -4665.6419      1291.885     
ec    54800  54.8           0.001          275.019       -274.68673      2.2395867     -4905.6099      1291.885     
ec    54900  54.9           0.001          272.28504     -274.50177      2.2173231     -5157.1044      1291.885     
ec    55000  55             0.001          296.11026     -275.00836      2.4113411     -4598.6937      1291.885     
ec    55100  55.1           0.001          289.00962     -275.55477      2.3535178     -4671.4397      1291.885     
ec    55200  55.2           0.001          306.49834     -275.58734      2.4959353     -4560.4994      1291.885     
ec    55300  55.3           0.001          301.42811     -275.07039      2.4546464     -4372.4761      1291.885     
ec    55400  55.4           0.001          340.14506     -275.14077      2.7699336     -4039.1303      1291.885     
ec    55500  55.5           0.001          278.74941     -274.71371      2.2699649     -4637.7922      1291.885     
ec    55600  55.6           0.001          308.57892     -275.25796      2.5128782     -4828.0053      1291.885     
ec    55700  55.7           0.001          248.10688     -275.38652      2.0204309     -5245.41        1291.885     
ec    55800  55.8           0.001          259.78976     -275.46875      2.1155691     -5091.6238      1291.885     
ec    55900  55.9           0.001          271.82589     -275.25394      2.213584      -4897.9575      1291.885     
ec    56000  56             0.001          299.54364     -275.1612       2.4393004     -4344.5045      1291.885     
ec    56100  56.1           0.001          287.60722     -274.79454      2.3420975     -4398.0529      1291.885     
ec    56200  56.2           0.001          292.51684     -274.73127      2.3820785     -4721.4426      1291.885     
ec    56300  56.3           0.001          321.08722     -275.19875      2.6147382     -4747.2278      1291.885     
ec    56400  56.4           0.001          252.95197     -275.21465      2.0598864     -5130.2556      1291.885     
ec    56500  56.5           0.001          267.96511     -275.31269      2.1821441     -4773.6346      1291.885     
ec    56600  56.6           0.001          328.40264     -275.33113      2.6743105     -4409.9887      1291.885     
ec    56700  56.7           0.001          318.3688      -275.01006      2.592601      -4019.5104      1291.885     
ec    56800  56.8           0.001          321.6323      -275.08229      2.619177      -4468.5727      1291.885     
ec    56900  56.9           0.001          313.77601     -275.18719      2.5552002     -4492.0296      1291.885     
ec    57000  57             0.001          249.43728     -275.01847      2.0312649     -4960.4957      1291.885     
ec    57100  57.1           0.001          238.64739     -275.40144      1.9433986     -5219.8379      1291.885     
ec    57200  57.2           0.001          233.41929     -275.17299      1.9008241     -4990.4117      1291.885     
ec    57300  57.3           0.001          336.31668     -275.45037      2.7387576     -4470.1703      1291.885     
ec    57400  57.4           0.001          309.1885      -275.07592      2.5178422     -4354.7543      1291.885     
ec    57500  57.5           0.001          321.46781     -275.08128      2.6178375     -4375.3354      1291.885     
ec    57600  57.6           0.001          318.59831     -275.06974      2.59447       -4570.9944      1291.885     
ec    57700  57.7           0.001          240.97432     -274.69742      1.9623477     -4912.1211      1291.885     
ec    57800  57.8           0.001          257.01167     -275.19777      2.0929461     -4984.3561      1291.885     
ec    57900  57.9           0.001          256.62433     -275.22786      2.0897918     -4762.7471      1291.885     
ec    58000  58             0.001          358.22221     -275.39443      2.9171428     -3962.3552      1291.885     
ec    58100  58.1           0.001          334.44589     -274.9471       2.723523      -4011.2146      1291.885     
ec    58200  58.2           0.001          325.8738      -275.07164      2.6537171     -4291.3278      1291.885     
ec    58300  58.3           0.001          294.65893     -275.22025      2.3995223     -4673.6304      1291.885     
ec    58400  58.4           0.001          250.6585      -275.09475      2.0412097     -4694.524       1291.885     
ec    58500  58.5           0.001          283.0602      -275.09918      2.3050693     -4715.1044      1291.885     
ec    58600  58.6           0.001          341.179       -274.90039      2.7783534     -4033.078       1291.885     
ec    58700  58.7           0.001          358.27292     -275.05288      2.9175558     -3857.7629      1291.885     
ec    58800  58.8           0.001          308.34737     -275.13696      2.5109926     -4426.9464      1291.885     
ec    58900  58.9           0.001          266.34895     -275.08967      2.1689832     -4621.9325      1291.885     
ec    59000  59             0.001          248.81408     -274.89577      2.0261899     -4814.6923      1291.885     
ec    59100  59.1           0.001          282.56065     -274.78208      2.3010014     -4843.495       1291.885     
ec    59200  59.2           0.001          359.98724     -274.6885       2.9315162     -4390.1459      1291.885     
ec    59300  59.3           0.001          344.07167     -274.76358      2.8019095     -3654.4185      1291.885     
ec    59400  59.4           0.001          309.32556     -274.91117      2.5189584     -3992.4525      1291.885     
ec    59500  59.5           0.001          333.57526     -275.44666      2.7164332     -4359.1955      1291.885     
ec    59600  59.6           0.001          275.16282     -275.10589      2.2407579     -4367.1066      1291.885     
ec    59700  59.7           0.001          286.81247     -275.05157      2.3356255     -4534.1136      1291.885     
ec    59800  59.8           0.001          335.45621     -274.76681      2.7317504     -4150.5908      1291.885     
ec    59900  59.9           0.001          356.4632      -274.89223      2.9028185     -4213.2616      1291.885     
Fix halt condition for fix-id myhalt met on step 60000 with value 60 (../fix_halt.cpp:240)
ec    60000  60             0.001          303.6184      -274.92719      2.4724828     -4353.6788      1291.885     
Loop time of 1.06846 on 2 procs for 30000 steps with 64 atoms

Performance: 2425.916 ns/day, 0.010 hours/ns, 28077.727 timesteps/s, 1.797 Matom-step/s
100.0% CPU use with 2 MPI tasks x no OpenMP threads

MPI task timing breakdown:
Section |  min time  |  avg time  |  max time  |%varavg| %total
---------------------------------------------------------------
Pair    | 0.73832    | 0.76241    | 0.7865     |   2.8 | 71.36
Neigh   | 0          | 0          | 0          |   0.0 |  0.00
Comm    | 0.23299    | 0.25682    | 0.28065    |   4.7 | 24.04
Output  | 0.0017426  | 0.0025047  | 0.0032668  |   1.5 |  0.23
Modify  | 0.027039   | 0.027793   | 0.028548   |   0.5 |  2.60
Other   |            | 0.01894    |            |       |  1.77

Nlocal:             32 ave          33 max          31 min
Histogram: 1 0 0 0 0 0 0 0 0 1
Nghost:            444 ave         445 max         443 min
Histogram: 1 0 0 0 0 0 0 0 0 1
Neighs:              0 ave           0 max           0 min
Histogram: 2 0 0 0 0 0 0 0 0 0
FullNghs:         1096 ave        1132 max        1060 min
Histogram: 1 0 0 0 0 0 0 0 0 1

Total # of neighbors = 2192
Ave neighs/atom = 34.25
Neighbor list builds = 0
Dangerous builds = 0

write_data cell.data_${temp}
write_data cell.data_300
System init for write_data ...
Total wall time: 0:00:02
