

units metal
timestep 0.001
boundary p p p

lattice         diamond 5.43
Lattice spacing in x,y,z = 5.43 5.43 5.43
region          box block 0 ${N} 0 ${N} 0 ${N}
region          box block 0 2 0 ${N} 0 ${N}
region          box block 0 2 0 2 0 ${N}
region          box block 0 2 0 2 0 2
create_box      1 box
Created orthogonal box = (0 0 0) to (10.86 10.86 10.86)
  1 by 1 by 2 MPI processor grid
create_atoms    1 box
Created 64 atoms
  using lattice units in orthogonal box = (0 0 0) to (10.86 10.86 10.86)
  create_atoms CPU = 0.001 seconds

timestep ${dt}
timestep 0.0005

mass 1 28.0855
labelmap atom 1 Si

pair_style sw
pair_coeff * * Si.sw Si
Reading sw potential file Si.sw with DATE: 2007-06-11


velocity all create ${temp} 4928459 mom yes rot yes dist gaussian
velocity all create 300 4928459 mom yes rot yes dist gaussian

variable t equal time
#fix myhalt all halt 100 v_t >= 30.0 error continue

#fix NVE all nve

#run 10000000

#unfix myhalt

compute 1 all vacf

thermo 100
thermo_style	custom step time dt temp pe ke press vol #c_1[4]
thermo_modify	line one flush yes format 1 "ec %8lu" flush yes


fix NPT all npt temp ${temp} ${temp} ${tau_T} iso 0.0 0.0 1.0
fix NPT all npt temp 300 ${temp} ${tau_T} iso 0.0 0.0 1.0
fix NPT all npt temp 300 300 ${tau_T} iso 0.0 0.0 1.0
fix NPT all npt temp 300 300 0.1 iso 0.0 0.0 1.0

fix myhalt all halt 100 v_t >= 30.0 error continue

run 10000000

CITE-CITE-CITE-CITE-CITE-CITE-CITE-CITE-CITE-CITE-CITE-CITE-CITE

Your simulation uses code contributions which should be cited:

- Type Label Framework: https://doi.org/10.1021/acs.jpcb.3c08419

@Article{Gissinger24,
 author = {Jacob R. Gissinger, Ilia Nikiforov, Yaser Afshar, Brendon Waters, Moon-ki Choi, Daniel S. Karls, Alexander Stukowski, Wonpil Im, Hendrik Heinz, Axel Kohlmeyer, and Ellad B. Tadmor},
 title = {Type Label Framework for Bonded Force Fields in LAMMPS},
 journal = {J. Phys. Chem. B},
 year =    2024,
 volume =  128,
 number =  13,
 pages =   {3282--3297}
}

CITE-CITE-CITE-CITE-CITE-CITE-CITE-CITE-CITE-CITE-CITE-CITE-CITE

Neighbor list info ...
  update: every = 1 steps, delay = 0 steps, check = yes
  max neighbors/atom: 2000, page size: 100000
  master list distance cutoff = 5.77118
  ghost atom cutoff = 5.77118
  binsize = 2.88559, bins = 4 4 4
  1 neighbor lists, perpetual/occasional/extra = 1 0 0
  (1) pair sw, perpetual
      attributes: full, newton on
      pair build: full/bin/atomonly
      stencil: full/bin/3d
      bin: standard
Per MPI rank memory allocation (min/avg/max) = 3.57 | 3.57 | 3.57 Mbytes
   Step          Time            Dt            Temp          PotEng         KinEng         Press          Volume    
ec        0  0              0.0005         300           -277.54229      2.4430167      2569.8731      1280.8241    
ec      100  0.05           0.0005         97.647937     -275.78934      0.79518515    -1203.2789      1285.1077    
ec      200  0.1            0.0005         155.74085     -275.97722      1.2682584     -951.9388       1285.7926    
ec      300  0.15           0.0005         232.19101     -276.33787      1.8908218      1097.8387      1282.7104    
ec      400  0.2            0.0005         197.76925     -275.75848      1.610512       682.55491      1284.0325    
ec      500  0.25           0.0005         198.48002     -275.3515       1.6163        -1654.6269      1287.3616    
ec      600  0.3            0.0005         263.50626     -275.52164      2.145834       21.99199       1285.0771    
ec      700  0.35           0.0005         273.29566     -275.19244      2.2255529      2067.5674      1283.6547    
ec      800  0.4            0.0005         186.26515     -274.17923      1.5168296     -2090.7492      1288.6678    
ec      900  0.45           0.0005         407.83638     -275.65801      3.3211704      91.121219      1286.7405    
ec     1000  0.5            0.0005         275.82998     -274.41749      2.2461909      1136.9464      1284.6693    
ec     1100  0.55           0.0005         377.53409     -275.16023      3.074407      -474.56522      1287.6056    
ec     1200  0.6            0.0005         372.12675     -275.18878      3.030373      -1286.5752      1288.6607    
ec     1300  0.65           0.0005         261.82989     -274.50195      2.1321827      1195.903       1284.5964    
ec     1400  0.7            0.0005         358.29053     -275.53229      2.9176992      678.96341      1285.3431    
ec     1500  0.75           0.0005         380.35594     -275.92682      3.0973864     -2385.2302      1289.0751    
ec     1600  0.8            0.0005         198.67892     -274.60008      1.6179198      1096.1393      1284.5877    
ec     1700  0.85           0.0005         261.61705     -275.17434      2.1304495      1538.0226      1283.6024    
ec     1800  0.9            0.0005         296.58106     -275.43298      2.415175      -2532.9484      1288.8834    
ec     1900  0.95           0.0005         236.33686     -274.80123      1.924583       589.83613      1286.0472    
ec     2000  1              0.0005         282.81417     -274.96054      2.3030658      1524.0857      1283.4629    
ec     2100  1.05           0.0005         328.13362     -275.04733      2.6721197     -590.06777      1287.7794    
ec     2200  1.1            0.0005         252.91164     -274.32985      2.0595579     -2424.7177      1289.4702    
ec     2300  1.15           0.0005         295.00591     -274.62074      2.4023479      3577.1934      1282.8365    
ec     2400  1.2            0.0005         407.95448     -275.63842      3.3221321     -388.26434      1286.5529    
ec     2500  1.25           0.0005         317.67111     -275.051        2.5869195     -3507.5559      1290.573     
ec     2600  1.3            0.0005         324.03316     -275.29986      2.6387281      2954.5319      1283.3413    
ec     2700  1.35           0.0005         289.75212     -275.22324      2.3595643      956.72403      1284.0784    
ec     2800  1.4            0.0005         307.6702      -275.44783      2.5054782     -2487.4157      1289.6819    
ec     2900  1.45           0.0005         253.95297     -275.06271      2.0680378     -1217.8304      1286.6185    
ec     3000  1.5            0.0005         337.76471     -275.67135      2.7505495      5124.613       1280.4555    
ec     3100  1.55           0.0005         253.62482     -274.9762       2.0653656     -3656.6562      1289.9255    
ec     3200  1.6            0.0005         221.92106     -274.60881      1.8071896     -2688.6899      1289.389     
ec     3300  1.65           0.0005         290.92115     -274.99088      2.3690842      5525.4951      1279.8682    
ec     3400  1.7            0.0005         302.80115     -274.96567      2.4658276     -1412.0214      1287.6494    
ec     3500  1.75           0.0005         311.16479     -274.84784      2.533936      -4328.2318      1292.4907    
ec     3600  1.8            0.0005         286.07693     -274.60544      2.3296358      3229.9541      1282.1838    
ec     3700  1.85           0.0005         359.13862     -275.17882      2.9246056      3547.8224      1282.8936    
ec     3800  1.9            0.0005         294.08166     -274.8089       2.3948214     -6395.9532      1294.7101    
ec     3900  1.95           0.0005         380.9007      -275.79871      3.1018227      1014.507       1284.8297    
ec     4000  2              0.0005         273.03967     -275.22819      2.2234683      6208.1618      1278.3847    
ec     4100  2.05           0.0005         258.13204     -275.24177      2.1020696     -5005.4814      1292.4801    
ec     4200  2.1            0.0005         332.38684     -275.82712      2.7067554     -2817.6315      1289.3793    
ec     4300  2.15           0.0005         204.23615     -274.69634      1.6631744      6958.087       1276.9356    
ec     4400  2.2            0.0005         288.77236     -275.23007      2.3515857     -1403.3918      1288.1256    
ec     4500  2.25           0.0005         328.61334     -275.39152      2.6760263     -6635.1016      1294.6493    
ec     4600  2.3            0.0005         228.90431     -274.5002       1.8640569      5663.4664      1278.8151    
ec     4700  2.35           0.0005         235.81365     -274.5163       1.9203223      3199.0823      1282.7099    
ec     4800  2.4            0.0005         349.6099      -275.4042       2.8470094     -8827.3371      1297.2803    
ec     4900  2.45           0.0005         357.27756     -275.45462      2.9094502      3213.5054      1282.7428    
ec     5000  2.5            0.0005         227.06208     -274.43916      1.8490548      5875.1372      1278.4351    
ec     5100  2.55           0.0005         377.5046      -275.65459      3.0741669     -6517.4321      1295.0118    
ec     5200  2.6            0.0005         299.21288     -275.10283      2.436607      -2319.8631      1289.3635    
ec     5300  2.65           0.0005         282.82587     -275.11007      2.3031611      8518.503       1275.2395    
ec     5400  2.7            0.0005         335.36439     -275.83578      2.7310027     -3116.5032      1289.9652    
ec     5500  2.75           0.0005         216.8093      -275.05757      1.7655625     -6968.5259      1294.5832    
ec     5600  2.8            0.0005         299.82949     -275.72517      2.4416282      8713.4719      1275.2684    
ec     5700  2.85           0.0005         218.60114     -275.01672      1.7801542      657.55474      1284.3023    
ec     5800  2.9            0.0005         262.49672     -275.03157      2.137613      -7709.09        1296.8701    
ec     5900  2.95           0.0005         295.27689     -275.06107      2.4045546      3139.1972      1281.6978    
ec     6000  3              0.0005         316.37973     -275.07288      2.5764032      6866.0533      1278.1142    
ec     6100  3.05           0.0005         258.61893     -274.57092      2.1060346     -8043.8061      1296.9936    
ec     6200  3.1            0.0005         268.54331     -274.68038      2.1868527     -1893.6546      1288.5166    
ec     6300  3.15           0.0005         437.9694      -276.02144      3.5665552      9811.3307      1274.3619    
ec     6400  3.2            0.0005         250.43419     -274.63518      2.0393831     -5266.1287      1292.8751    
ec     6500  3.25           0.0005         305.37517     -275.19681      2.4867888     -5941.1396      1293.966     
ec     6600  3.3            0.0005         330.98874     -275.62913      2.6953701      8303.8265      1275.1522    
ec     6700  3.35           0.0005         252.00175     -275.25836      2.0521483      922.27661      1285.0337    
ec     6800  3.4            0.0005         260.38362     -275.48408      2.1204051     -9159.2173      1297.2721    
ec     6900  3.45           0.0005         256.25085     -275.47132      2.0867504      5099.5402      1278.8991    
ec     7000  3.5            0.0005         263.337       -275.32468      2.1444556      6186.155       1278.4057    
ec     7100  3.55           0.0005         220.5521      -274.62175      1.7960416     -9325.3689      1298.0056    
ec     7200  3.6            0.0005         308.91082     -275.13619      2.515581       405.67373      1285.9615    
ec     7300  3.65           0.0005         279.50497     -274.81157      2.2761178      8807.724       1275.365     
ec     7400  3.7            0.0005         306.457       -275.02011      2.4955986     -5972.0681      1293.977     
ec     7500  3.75           0.0005         333.11784     -275.22426      2.7127082     -4308.5223      1292.5595    
ec     7600  3.8            0.0005         275.05629     -274.78021      2.2398904      8441.7302      1275.3654    
ec     7700  3.85           0.0005         332.08599     -275.30615      2.7043054     -401.43421      1287.1055    
ec     7800  3.9            0.0005         321.83374     -275.30837      2.6208174     -8770.3694      1297.3727    
ec     7900  3.95           0.0005         321.27298     -275.41289      2.6162509      7059.8128      1277.725     
ec     8000  4              0.0005         248.97467     -274.99658      2.0274976      3254.2856      1280.9772    
ec     8100  4.05           0.0005         308.21734     -275.53726      2.5099337     -8502.6867      1297.1036    
ec     8200  4.1            0.0005         234.88818     -275.02996      1.9127858      1911.2288      1283.7458    
ec     8300  4.15           0.0005         265.49195     -275.24307      2.1620042      6856.5578      1276.1693    
ec     8400  4.2            0.0005         288.7045      -275.19008      2.3510331     -5394.4926      1293.7104    
ec     8500  4.25           0.0005         267.27799     -274.75935      2.1765487     -4693.1052      1291.6304    
ec     8600  4.3            0.0005         322.16366     -274.89448      2.623504       9868.381       1274.8937    
ec     8700  4.35           0.0005         295.34952     -274.65484      2.405146      -3107.2788      1289.9107    
ec     8800  4.4            0.0005         356.09572     -275.12586      2.899826      -6789.3834      1295.5998    
ec     8900  4.45           0.0005         295.26857     -274.7726       2.4044869      6923.0358      1278.0123    
ec     9000  4.5            0.0005         362.75446     -275.50275      2.9540507      2259.142       1283.0752    
ec     9100  4.55           0.0005         267.63239     -274.90772      2.1794347     -7552.1979      1296.29      
ec     9200  4.6            0.0005         285.27614     -275.26202      2.3231146      1896.551       1283.083     
ec     9300  4.65           0.0005         331.92069     -275.68508      2.7029593      7278.5061      1277.2276    
ec     9400  4.7            0.0005         259.44743     -275.12546      2.1127813     -7039.4016      1294.5336    
ec     9500  4.75           0.0005         244.2668      -274.85822      1.9891596     -2174.7237      1288.5745    
ec     9600  4.8            0.0005         327.98483     -274.87675      2.6709081      8439.8321      1276.2823    
ec     9700  4.85           0.0005         306.7514      -274.43175      2.497996      -3331.3028      1290.9453    
ec     9800  4.9            0.0005         315.91991     -274.46977      2.5726588     -5865.6091      1294.192     
ec     9900  4.95           0.0005         333.10583     -274.80815      2.7126104      6238.6952      1278.5882    
ec    10000  5              0.0005         329.64605     -275.06042      2.684436       1973.4312      1284.2773    
ec    10100  5.05           0.0005         263.45932     -274.81466      2.1454517     -7738.0102      1295.7841    
ec    10200  5.1            0.0005         302.03585     -275.28292      2.4595954      3393.2991      1281.6989    
ec    10300  5.15           0.0005         335.64136     -275.63076      2.7332582      5267.0316      1279.4434    
ec    10400  5.2            0.0005         243.96127     -274.9103       1.9866716     -6786.4298      1294.4147    
ec    10500  5.25           0.0005         377.85918     -275.91535      3.0770544     -34.104835      1286.3875    
ec    10600  5.3            0.0005         211.01308     -274.42568      1.7183616      5719.3526      1278.2631    
ec    10700  5.35           0.0005         366.16401     -275.33915      2.9818161     -2509.3554      1290.1689    
ec    10800  5.4            0.0005         347.2222      -274.89866      2.8275655     -4794.6272      1292.5183    
ec    10900  5.45           0.0005         274.9396      -274.20264      2.2389402      5920.2676      1279.1997    
ec    11000  5.5            0.0005         329.68583     -274.76457      2.68476        269.98197      1286.2735    
ec    11100  5.55           0.0005         297.74546     -274.6255       2.4246571     -5940.3029      1294.2129    
ec    11200  5.6            0.0005         352.9121      -275.21064      2.8739005      3986.9683      1281.6958    
ec    11300  5.65           0.0005         232.78994     -274.38959      1.8956991      2111.5565      1282.7996    
ec    11400  5.7            0.0005         400.54207     -275.78698      3.2617699     -4125.2759      1292.2592    
ec    11500  5.75           0.0005         232.30557     -274.5528       1.8917547     -517.37918      1286.5409    
ec    11600  5.8            0.0005         334.67557     -275.42797      2.7253934      5186.6309      1279.6159    
ec    11700  5.85           0.0005         327.15325     -275.45187      2.6641362     -3427.4657      1290.1954    
ec    11800  5.9            0.0005         262.86961     -274.98978      2.1406495     -2566.6879      1289.4937    
ec    11900  5.95           0.0005         335.58201     -275.59715      2.7327749      4971.4502      1279.6908    
ec    12000  6              0.0005         244.42448     -274.89772      1.9904436     -1029.8779      1286.915     
ec    12100  6.05           0.0005         279.39489     -275.08884      2.2752213     -3441.2417      1290.8293    
ec    12200  6.1            0.0005         298.47758     -275.11478      2.4306191      2566.9743      1282.518     
ec    12300  6.15           0.0005         343.4305      -275.27527      2.7966882      2145.9082      1283.6248    
ec    12400  6.2            0.0005         256.40675     -274.38319      2.0880199     -4054.3605      1291.5509    
ec    12500  6.25           0.0005         318.59908     -274.79147      2.5944763      196.80348      1285.962     
ec    12600  6.3            0.0005         362.27591     -275.11339      2.9501537      4009.7073      1281.9503    
ec    12700  6.35           0.0005         289.51626     -274.70063      2.3576436     -3529.6269      1290.2986    
ec    12800  6.4            0.0005         314.0492      -275.22258      2.5574249     -1288.7724      1287.8397    
ec    12900  6.45           0.0005         316.61177     -275.55836      2.5782928      3435.5522      1281.4743    
ec    13000  6.5            0.0005         262.19311     -275.22615      2.1351405     -640.5114       1286.5302    
ec    13100  6.55           0.0005         265.89766     -275.24327      2.1653081     -2714.6824      1289.3269    
ec    13200  6.6            0.0005         293.01475     -275.38034      2.3861331      1914.6054      1282.9686    
ec    13300  6.65           0.0005         302.8691      -275.29328      2.4663809      2148.9115      1283.9861    
ec    13400  6.7            0.0005         280.13922     -274.9856       2.2812827     -4177.9649      1290.5971    
ec    13500  6.75           0.0005         285.94383     -274.87089      2.3285519      1908.0115      1284.4338    
ec    13600  6.8            0.0005         279.0777      -274.76555      2.2726383      1524.2678      1283.8878    
ec    13700  6.85           0.0005         338.04248     -275.20578      2.7528115     -1931.9615      1289.0437    
ec    13800  6.9            0.0005         314.42673     -275.05533      2.5604992     -809.97475      1287.1433    
ec    13900  6.95           0.0005         273.24707     -274.75471      2.2251572      1964.5944      1283.1345    
ec    14000  7              0.0005         324.17415     -275.19431      2.6398763      25.588671      1286.8472    
ec    14100  7.05           0.0005         318.43002     -275.21058      2.5930995     -3099.5361      1289.0919    
ec    14200  7.1            0.0005         307.55517     -275.11036      2.5045414      3241.9195      1282.7281    
ec    14300  7.15           0.0005         285.59688     -274.99628      2.3257265     -852.18201      1286.1962    
ec    14400  7.2            0.0005         347.28062     -275.47435      2.8280412     -1484.9708      1288.4305    
ec    14500  7.25           0.0005         238.92857     -274.62689      1.9456884      789.01864      1284.9528    
ec    14600  7.3            0.0005         285.82219     -275.0226       2.3275613      1121.4843      1284.2028    
ec    14700  7.35           0.0005         341.94744     -275.45567      2.784611      -1390.8939      1288.1109    
ec    14800  7.4            0.0005         279.94433     -274.95561      2.2796956     -757.0292       1286.7759    
ec    14900  7.45           0.0005         292.86124     -274.99349      2.3848831      2598.4432      1283.0434    
ec    15000  7.5            0.0005         278.2427      -274.84578      2.2658386     -1602.7111      1287.7711    
ec    15100  7.55           0.0005         315.66967     -275.08837      2.5706209     -953.59057      1287.6641    
ec    15200  7.6            0.0005         305.05949     -274.97647      2.4842181      2022.287       1283.6572    
ec    15300  7.65           0.0005         338.02525     -275.2424       2.7526712     -322.86076      1286.3084    
ec    15400  7.7            0.0005         315.40495     -275.09016      2.5684652     -1713.8305      1288.4193    
ec    15500  7.75           0.0005         276.82793     -274.89529      2.2543175      1138.7061      1284.6151    
ec    15600  7.8            0.0005         327.52887     -275.43708      2.6671951      1168.7964      1284.4436    
ec    15700  7.85           0.0005         250.25617     -274.99904      2.0379334     -2120.5391      1288.2124    
ec    15800  7.9            0.0005         293.7989      -275.49606      2.3925188      182.73893      1285.1697    
ec    15900  7.95           0.0005         288.85607     -275.52071      2.3522674      1836.085       1283.3594    
ec    16000  8              0.0005         211.8818      -274.88213      1.7254359     -1572.496       1287.3675    
ec    16100  8.05           0.0005         308.71512     -275.40433      2.5139874     -417.61695      1286.3359    
ec    16200  8.1            0.0005         287.96852     -274.88011      2.3450397      717.11554      1284.4784    
ec    16300  8.15           0.0005         351.7451      -275.13841      2.8643973      904.76457      1286.0915    
ec    16400  8.2            0.0005         276.46011     -274.51098      2.2513222     -2900.1486      1289.0813    
ec    16500  8.25           0.0005         349.92621     -275.12601      2.8495853      1508.5042      1284.3884    
ec    16600  8.3            0.0005         311.06052     -274.95536      2.5330868      1283.7547      1285.1075    
ec    16700  8.35           0.0005         275.43592     -274.84813      2.2429819     -2659.6542      1288.8186    
ec    16800  8.4            0.0005         371.34097     -275.79577      3.0239741      1281.1037      1284.5456    
ec    16900  8.45           0.0005         215.66869     -274.71369      1.7562741      742.70484      1284.3346    
ec    17000  8.5            0.0005         308.257       -275.50431      2.5102567     -515.93144      1286.9416    
ec    17100  8.55           0.0005         261.76752     -275.16877      2.1316748     -1345.4346      1286.7884    
ec    17200  8.6            0.0005         298.36595     -275.31039      2.42971        2678.7425      1282.8362    
ec    17300  8.65           0.0005         287.60789     -274.79087      2.3421029     -1485.4296      1287.3192    
ec    17400  8.7            0.0005         338.97253     -274.89343      2.7603853     -633.89554      1287.7144    
ec    17500  8.75           0.0005         354.86526     -274.90775      2.8898059      1523.2761      1284.413     
ec    17600  8.8            0.0005         251.87694     -274.17199      2.0511319     -929.77261      1286.8842    
ec    17700  8.85           0.0005         389.92987     -275.46574      3.1753507     -234.69786      1287.4238    
ec    17800  8.9            0.0005         291.84787     -274.96094      2.3766308     -194.60405      1285.587     
ec    17900  8.95           0.0005         287.14476     -275.10902      2.3383315      1241.8801      1284.2868    
ec    18000  9              0.0005         280.14893     -275.1787       2.2813618     -1604.544       1287.5393    
ec    18100  9.05           0.0005         280.59186     -275.19302      2.2849687      14.436378      1285.9277    
ec    18200  9.1            0.0005         309.53772     -275.39094      2.5206861      1283.5163      1283.7682    
ec    18300  9.15           0.0005         277.55165     -275.03656      2.2602111     -1122.3855      1286.9665    
ec    18400  9.2            0.0005         302.85082     -274.98407      2.4662321     -585.46833      1287.1263    
ec    18500  9.25           0.0005         343.82565     -274.91258      2.799906       1238.6045      1284.534     
ec    18600  9.3            0.0005         369.57629     -274.80383      3.0096036      118.01855      1286.3817    
ec    18700  9.35           0.0005         311.4726      -274.33224      2.5364426     -1708.2696      1289.0451    
ec    18800  9.4            0.0005         342.13348     -274.72864      2.786126       551.71678      1285.6393    
ec    18900  9.45           0.0005         383.53325     -275.24924      3.1232605      2060.0499      1284.3392    
ec    19000  9.5            0.0005         260.2375      -274.51237      2.1192152     -2701.3899      1289.1008    
ec    19100  9.55           0.0005         302.9024      -275.01674      2.4666521      393.50931      1285.9097    
ec    19200  9.6            0.0005         341.76278     -275.4906       2.7831073      1982.1078      1283.3645    
ec    19300  9.65           0.0005         287.08112     -275.13999      2.3378133     -1218.4688      1287.3979    
ec    19400  9.7            0.0005         243.00531     -274.84522      1.9788868     -1456.2094      1287.6731    
ec    19500  9.75           0.0005         313.89267     -275.42469      2.5561502      2032.8034      1282.9153    
ec    19600  9.8            0.0005         330.85408     -275.45738      2.6942735      944.31427      1285.2594    
ec    19700  9.85           0.0005         250.10066     -274.59545      2.036667      -4177.9819      1290.3551    
ec    19800  9.9            0.0005         348.92928     -274.95749      2.8414669      3321.9094      1283.2764    
ec    19900  9.95           0.0005         338.70983     -274.73121      2.7582459      206.81031      1285.2969    
ec    20000  10             0.0005         367.06765     -274.93947      2.9891747     -2389.6261      1290.1617    
ec    20100  10.05          0.0005         278.74005     -274.46425      2.2698887      95.688382      1286.0934    
ec    20200  10.1           0.0005         338.40732     -275.17374      2.7557825      2490.5112      1282.4742    
ec    20300  10.15          0.0005         316.47379     -275.21741      2.5771692     -1535.1017      1288.5715    
ec    20400  10.2           0.0005         272.68319     -274.98041      2.2205653     -2677.0116      1288.6917    
ec    20500  10.25          0.0005         293.62325     -275.14998      2.3910883      4672.9659      1280.4455    
ec    20600  10.3           0.0005         276.29512     -275.04169      2.2499786     -1612.3584      1287.2445    
ec    20700  10.35          0.0005         333.08926     -275.42538      2.7124755     -2779.2205      1290.1882    
ec    20800  10.4           0.0005         239.14068     -274.62592      1.9474156      2710.2608      1282.1701    
ec    20900  10.45          0.0005         320.47845     -275.16509      2.6097807      1961.0014      1283.5724    
ec    21000  10.5           0.0005         358.66601     -275.21235      2.9207569     -4417.8346      1292.1994    
ec    21100  10.55          0.0005         326.09734     -274.61944      2.6555376      1013.273       1285.2658    
ec    21200  10.6           0.0005         326.075       -274.31493      2.6553556      4457.634       1281.1316    
ec    21300  10.65          0.0005         365.94463     -274.68535      2.9800296     -4703.2385      1292.5085    
ec    21400  10.7           0.0005         363.7768      -274.91773      2.962376      -1278.3847      1288.6013    
ec    21500  10.75          0.0005         289.90786     -274.66141      2.3608325      5464.4485      1279.235     
ec    21600  10.8           0.0005         317.81563     -275.05745      2.5880963     -1935.0012      1288.5081    
ec    21700  10.85          0.0005         329.63421     -275.24718      2.6843397     -4733.3188      1291.9691    
ec    21800  10.9           0.0005         230.07525     -274.54101      1.8735923      5108.3464      1279.574     
ec    21900  10.95          0.0005         321.96794     -275.34491      2.6219102      1867.5263      1283.567     
ec    22000  11             0.0005         279.86298     -275.06637      2.2790331     -7174.1327      1294.4566    
ec    22100  11.05          0.0005         282.14405     -275.12585      2.2976088      2985.1393      1282.3027    
ec    22200  11.1           0.0005         300.45017     -275.25533      2.4466827      5253.7037      1279.3269    
ec    22300  11.15          0.0005         258.2091      -274.85748      2.1026972     -6664.9754      1293.8873    
ec    22400  11.2           0.0005         369.88396     -275.56034      3.012109      -744.65274      1287.3682    
ec    22500  11.25          0.0005         266.67137     -274.50327      2.1716088      6486.4654      1277.6133    
ec    22600  11.3           0.0005         407.24303     -275.42176      3.3163385     -2176.4997      1289.892     
ec    22700  11.35          0.0005         283.47774     -274.3769       2.3084696     -6899.0215      1294.5063    
ec    22800  11.4           0.0005         362.70402     -275.05857      2.95364        8143.5465      1276.642     
ec    22900  11.45          0.0005         304.77427     -274.91987      2.4818955      1228.2499      1284.7443    
ec    23000  11.5           0.0005         283.87171     -275.03091      2.3116778     -8854.8894      1297.0813    
ec    23100  11.55          0.0005         317.45385     -275.50116      2.5851502      5072.2178      1279.4044    
ec    23200  11.6           0.0005         194.89445     -274.54926      1.5871014      5472.2957      1278.6197    
ec    23300  11.65          0.0005         339.16012     -275.62626      2.7619128     -7807.7993      1296.3499    
ec    23400  11.7           0.0005         257.54113     -274.9428       2.0972576     -1439.3054      1286.8118    
ec    23500  11.75          0.0005         319.4142      -275.24423      2.6011141      10168.157      1273.8118    
ec    23600  11.8           0.0005         266.12383     -274.7107       2.1671499     -6390.5553      1293.9368    
ec    23700  11.85          0.0005         362.00593     -275.33223      2.9479552     -5250.3275      1293.2336    
ec    23800  11.9           0.0005         309.66371     -274.73865      2.5217121      9363.5088      1274.2142    
ec    23900  11.95          0.0005         319.09515     -274.727        2.598516      -784.74966      1287.2754    
ec    24000  12             0.0005         400.98097     -275.11646      3.265344      -8856.4777      1298.5835    
ec    24100  12.05          0.0005         337.78591     -274.531        2.7507221      5679.6113      1278.7512    
ec    24200  12.1           0.0005         319.7556      -274.46534      2.6038942      5911.6535      1279.3299    
ec    24300  12.15          0.0005         307.80092     -274.68109      2.5065426     -10598.795      1300.1671    
ec    24400  12.2           0.0005         347.95712     -275.34976      2.8335503      1134.7539      1284.5462    
ec    24500  12.25          0.0005         268.51283     -274.8894       2.1866044      10338.77       1272.8762    
ec    24600  12.3           0.0005         254.2117      -274.91478      2.0701448     -8037.9297      1296.0578    
ec    24700  12.35          0.0005         289.02465     -275.23343      2.3536402     -4811.2463      1292.3473    
ec    24800  12.4           0.0005         314.3601      -275.39548      2.5599566      11407.133      1271.3456    
ec    24900  12.45          0.0005         262.93919     -274.93156      2.1412161     -2065.2899      1288.5523    
ec    25000  12.5           0.0005         306.38276     -275.00628      2.494994      -9966.2018      1299.1946    
ec    25100  12.55          0.0005         369.2364      -275.2264       3.0068357      8815.9622      1275.0297    
ec    25200  12.6           0.0005         341.38487     -274.74963      2.7800298      4868.0465      1280.8187    
ec    25300  12.65          0.0005         294.21216     -274.30871      2.3958841     -12565.139      1302.365     
ec    25400  12.7           0.0005         393.60282     -275.24508      3.2052609      4476.3849      1281.6626    
ec    25500  12.75          0.0005         340.86247     -275.02815      2.7757757      8295.5755      1275.1237    
ec    25600  12.8           0.0005         272.30634     -274.58465      2.2174965     -8064.1876      1297.4272    
ec    25700  12.85          0.0005         281.24754     -274.82371      2.2903081     -4059.1477      1290.8238    
ec    25800  12.9           0.0005         326.31955     -275.19572      2.6573471      11131.102      1271.9787    
ec    25900  12.95          0.0005         294.26595     -275.05429      2.3963221     -2764.7699      1290.2089    
ec    26000  13             0.0005         238.33789     -274.66346      1.9408782     -10162.517      1298.0401    
ec    26100  13.05          0.0005         319.49572     -275.3134       2.601778       10344.376      1273.6392    
ec    26200  13.1           0.0005         278.50661     -275.08105      2.2679877      1961.7474      1282.7329    
ec    26300  13.15          0.0005         299.24189     -275.19443      2.4368432     -10186.453      1299.4465    
ec    26400  13.2           0.0005         271.22901     -274.96819      2.2087233      3523.3933      1280.9012    
ec    26500  13.25          0.0005         361.2395      -275.544        2.9417139      8360.0053      1275.7305    
ec    26600  13.3           0.0005         312.20165     -274.96981      2.5423795     -9244.2567      1298.1282    
ec    26700  13.35          0.0005         273.0426      -274.53223      2.2234921     -1725.2096      1288.6409    
ec    26800  13.4           0.0005         382.88438     -275.23757      3.1179765      10113.308      1273.8199    
ec    26900  13.45          0.0005         317.27485     -274.75638      2.5836925     -5395.9454      1292.9581    
ec    27000  13.5           0.0005         306.22372     -274.78944      2.4936989     -5210.4357      1293.8486    
ec    27100  13.55          0.0005         270.47049     -274.83147      2.2025464      7669.0435      1275.9876    
ec    27200  13.6           0.0005         288.29216     -275.27437      2.3476753      712.00896      1284.781     
ec    27300  13.65          0.0005         284.95335     -275.34289      2.320486      -7414.12        1295.5912    
ec    27400  13.7           0.0005         239.54537     -274.99708      1.9507111      4133.0026      1280.4418    
ec    27500  13.75          0.0005         301.4785      -275.39362      2.4550567      4655.5459      1279.6139    
ec    27600  13.8           0.0005         280.18336     -275.0877       2.2816422     -6793.9043      1294.7298    
ec    27700  13.85          0.0005         321.07796     -275.28018      2.6146628      171.00733      1286.0711    
ec    27800  13.9           0.0005         295.01894     -274.93045      2.402454       5944.0083      1278.2417    
ec    27900  13.95          0.0005         341.42337     -275.24971      2.7803434     -3791.6629      1290.9104    
ec    28000  14             0.0005         343.90565     -275.2643       2.8005575     -3335.0146      1290.6875    
ec    28100  14.05          0.0005         227.75971     -274.36255      1.854736       4992.7506      1279.4079    
ec    28200  14.1           0.0005         379.01934     -275.6046       3.0865019      526.02484      1285.8022    
ec    28300  14.15          0.0005         265.50362     -274.75839      2.1620993     -6307.7104      1293.2892    
ec    28400  14.2           0.0005         298.30551     -275.05594      2.4292178      4319.6071      1281.1784    
ec    28500  14.25          0.0005         291.03059     -275.0758       2.3699753      2099.2212      1283.1212    
ec    28600  14.3           0.0005         261.58954     -274.9019       2.1302254     -5121.2125      1291.9808    
ec    28700  14.35          0.0005         269.98536     -275.0799       2.1985959      1346.1587      1284.6243    
ec    28800  14.4           0.0005         263.80617     -275.1992       2.1482763      3181.1349      1281.3906    
ec    28900  14.45          0.0005         316.13471     -275.75658      2.5744079     -2264.5242      1288.6648    
ec    29000  14.5           0.0005         225.74153     -275.11309      1.8383011     -2354.9775      1288.0015    
ec    29100  14.55          0.0005         317.81131     -275.74542      2.5880612      4579.5959      1280.5236    
ec    29200  14.6           0.0005         261.3853      -275.07395      2.1285622     -1116.7403      1286.8527    
ec    29300  14.65          0.0005         339.2194      -275.37632      2.7623956     -2664.5952      1289.6326    
ec    29400  14.7           0.0005         324.68127     -275.07812      2.644006       2105.4861      1283.4598    
ec    29500  14.75          0.0005         295.21708     -274.78019      2.4040675      1561.0465      1284.5359    
ec    29600  14.8           0.0005         335.24704     -275.10021      2.7300471     -2997.3765      1290.1835    
ec    29700  14.85          0.0005         268.75583     -274.65848      2.1885833     -187.43494      1285.8761    
ec    29800  14.9           0.0005         291.14904     -274.94728      2.3709399      3574.8945      1282.2474    
ec    29900  14.95          0.0005         284.02065     -275.12103      2.3128907     -3352.3353      1289.6127    
ec    30000  15             0.0005         288.52214     -275.38627      2.349548      -753.30679      1286.726     
ec    30100  15.05          0.0005         215.30896     -275.03773      1.7533447      3042.752       1281.5698    
ec    30200  15.1           0.0005         267.02562     -275.59255      2.1744935     -1403.8734      1286.9093    
ec    30300  15.15          0.0005         289.51847     -275.74848      2.3576615     -1778.2732      1287.9259    
ec    30400  15.2           0.0005         269.98735     -275.28675      2.1986121      2008.9372      1282.6367    
ec    30500  15.25          0.0005         298.89016     -275.06517      2.4339788      717.03952      1285.3542    
ec    30600  15.3           0.0005         316.34916     -275.00541      2.5761543     -2734.0769      1290.105     
ec    30700  15.35          0.0005         347.62622     -275.16359      2.8308556      1034.5504      1284.6847    
ec    30800  15.4           0.0005         305.77626     -274.79159      2.4900551      2124.2963      1283.8355    
ec    30900  15.45          0.0005         297.0125      -274.79444      2.4186884     -2660.5525      1289.814     
ec    31000  15.5           0.0005         333.97868     -275.22661      2.7197183      62.777918      1286.3761    
ec    31100  15.55          0.0005         232.11473     -274.62746      1.8902006      2194.9546      1282.8058    
ec    31200  15.6           0.0005         264.68232     -275.05131      2.1554111     -521.94323      1287.1159    
ec    31300  15.65          0.0005         291.34712     -275.41097      2.372553      -2566.5872      1288.5555    
ec    31400  15.7           0.0005         293.29132     -275.45163      2.3883853      2816.0224      1282.1351    
ec    31500  15.75          0.0005         248.03254     -275.00731      2.0198255      657.68941      1285.2131    
ec    31600  15.8           0.0005         301.09247     -275.18053      2.4519131     -3786.262       1290.0943    
ec    31700  15.85          0.0005         358.06538     -275.18204      2.9158657      2712.7439      1283.698     
ec    31800  15.9           0.0005         327.2369      -274.79466      2.6648174      407.15351      1285.0827    
ec    31900  15.95          0.0005         387.17093     -275.24994      3.1528835     -2127.0756      1289.6337    
ec    32000  16             0.0005         281.24165     -274.56724      2.2902602     -429.43426      1286.696     
ec    32100  16.05          0.0005         344.81277     -275.25407      2.8079446      2842.9499      1282.775     
ec    32200  16.1           0.0005         274.54105     -274.94084      2.2356946     -1960.3962      1288.3358    
ec    32300  16.15          0.0005         254.69056     -274.91775      2.0740444     -1513.2382      1287.8877    
ec    32400  16.2           0.0005         314.30649     -275.44247      2.5595201      2918.1903      1282.252     
ec    32500  16.25          0.0005         252.85234     -274.95265      2.059075      -710.83797      1286.3745    
ec    32600  16.3           0.0005         249.1234      -274.84419      2.0287088     -1922.0423      1288.9406    
ec    32700  16.35          0.0005         305.52769     -275.24675      2.4880309      1236.3488      1283.9917    
ec    32800  16.4           0.0005         336.9981      -275.42463      2.7443066      2005.9132      1283.7791    
ec    32900  16.45          0.0005         271.80074     -274.8681       2.2133792     -3129.3229      1290.0895    
ec    33000  16.5           0.0005         310.49538     -275.15671      2.5284847      335.17761      1285.7196    
ec    33100  16.55          0.0005         340.17674     -275.37044      2.7701916      3092.7617      1282.3183    
ec    33200  16.6           0.0005         273.57097     -274.84378      2.2277948     -2782.8483      1289.4958    
ec    33300  16.65          0.0005         350.25749     -275.45068      2.8522831     -925.04798      1287.4981    
ec    33400  16.7           0.0005         298.19715     -275.0483       2.4283355      2844.8132      1282.1805    
ec    33500  16.75          0.0005         254.73817     -274.71765      2.074432      -554.34382      1286.9865    
ec    33600  16.8           0.0005         312.24166     -275.23566      2.5427054     -2804.8029      1289.5391    
ec    33700  16.85          0.0005         252.68726     -274.85878      2.0577307      2366.4569      1282.8536    
ec    33800  16.9           0.0005         305.53632     -275.36845      2.4881011      1587.7396      1284.0762    
ec    33900  16.95          0.0005         251.81537     -275.00341      2.0506306     -3967.9004      1290.4858    
ec    34000  17             0.0005         285.4345      -275.24991      2.3244042      1690.1845      1284.1602    
ec    34100  17.05          0.0005         274.71286     -275.07437      2.2370938      2257.5439      1282.5588    
ec    34200  17.1           0.0005         329.73514     -275.3261       2.6851616     -2530.8814      1289.3944    
ec    34300  17.15          0.0005         333.23663     -275.12142      2.7136756     -1279.3272      1287.8497    
ec    34400  17.2           0.0005         303.90873     -274.70845      2.474847       3211.4189      1281.898     
ec    34500  17.25          0.0005         393.86093     -275.32925      3.2073628     -502.87299      1287.4782    
ec    34600  17.3           0.0005         274.94176     -274.44235      2.2389577     -4277.7576      1291.3053    
ec    34700  17.35          0.0005         358.02991     -275.32935      2.9155769      4026.4679      1281.3704    
ec    34800  17.4           0.0005         253.49197     -274.98506      2.0642838      530.07177      1284.7059    
ec    34900  17.45          0.0005         278.4333      -275.35248      2.2673907     -3947.7336      1290.8399    
ec    35000  17.5           0.0005         245.78066     -275.13809      2.0014876      1635.3812      1283.2586    
ec    35100  17.55          0.0005         257.61198     -275.14384      2.0978346      3179.4612      1281.587     
ec    35200  17.6           0.0005         320.03701     -275.45691      2.6061859     -3645.6619      1290.6469    
ec    35300  17.65          0.0005         259.80823     -274.79423      2.1157195     -1271.249       1287.1596    
ec    35400  17.7           0.0005         330.42685     -275.13557      2.6907944      5311.8337      1280.0775    
ec    35500  17.75          0.0005         310.20317     -274.89899      2.5261051     -2899.5538      1289.6559    
ec    35600  17.8           0.0005         358.77472     -275.24552      2.9216422     -2546.5528      1289.9409    
ec    35700  17.85          0.0005         308.02931     -274.90053      2.5084026      4146.0676      1280.9683    
ec    35800  17.9           0.0005         343.49332     -275.29537      2.7971998      398.69874      1285.6434    
ec    35900  17.95          0.0005         272.11593     -274.87106      2.2159459     -4579.9264      1292.0095    
ec    36000  18             0.0005         266.68951     -275.1216       2.1717564      2193.6092      1282.7111    
ec    36100  18.05          0.0005         288.5133      -275.72754      2.3494761      3710.2461      1280.8966    
ec    36200  18.1           0.0005         208.21812     -275.27344      1.6956012     -5249.7765      1291.613     
ec    36300  18.15          0.0005         268.00858     -275.69419      2.1824981      14.081812      1285.2792    
ec    36400  18.2           0.0005         241.78911     -275.3108       1.9689828      5035.3263      1279.0413    
ec    36500  18.25          0.0005         239.2989      -275.05547      1.9487041     -3548.6149      1289.9613    
ec    36600  18.3           0.0005         310.8905      -275.37718      2.5317024     -2795.55        1289.6267    
ec    36700  18.35          0.0005         323.80565     -275.30674      2.6368754      4700.5539      1279.617     
ec    36800  18.4           0.0005         287.54273     -274.84706      2.3415723      187.34297      1286.38      
ec    36900  18.45          0.0005         325.26745     -275.05355      2.6487794     -5727.7387      1293.2935    
ec    37000  18.5           0.0005         346.41311     -275.17101      2.8209768      4104.2682      1281.2801    
ec    37100  18.55          0.0005         293.34541     -274.76371      2.3888258      2686.8531      1282.9223    
ec    37200  18.6           0.0005         332.17307     -275.18732      2.7050146     -5870.7211      1293.7334    
ec    37300  18.65          0.0005         299.75096     -275.2016       2.4409887      1428.6295      1284.623     
ec    37400  18.7           0.0005         222.21437     -274.89547      1.8095781      4515.7238      1279.5112    
ec    37500  18.75          0.0005         293.66047     -275.60088      2.3913915     -3165.5929      1290.3981    
ec    37600  18.8           0.0005         244.20113     -275.21997      1.9886248     -3325.2487      1289.3371    
ec    37700  18.85          0.0005         259.94958     -275.18907      2.1168706      6440.8602      1277.7495    
ec    37800  18.9           0.0005         291.39349     -275.26803      2.3729306     -1337.7494      1287.5605    
ec    37900  18.95          0.0005         271.36293     -274.91964      2.209814      -5468.5188      1293.0731    
ec    38000  19             0.0005         297.12795     -275.02727      2.4196285      4968.5582      1279.8135    
ec    38100  19.05          0.0005         338.95965     -275.34162      2.7602803      1958.7149      1283.4111    
ec    38200  19.1           0.0005         324.68587     -275.17938      2.6440434     -6207.5982      1294.4014    
ec    38300  19.15          0.0005         266.31196     -274.74609      2.1686819      1336.2526      1284.0445    
ec    38400  19.2           0.0005         350.78154     -275.41288      2.8565506      6052.6077      1278.879     
ec    38500  19.25          0.0005         282.87682     -274.92685      2.303576      -6249.6666      1293.6722    
ec    38600  19.3           0.0005         278.609       -274.99517      2.2688215     -1543.8274      1288.3299    
ec    38700  19.35          0.0005         330.98399     -275.57013      2.6953315      6997.3138      1277.043     
ec    38800  19.4           0.0005         224.0226      -274.92207      1.8243032     -2993.5119      1289.2985    
ec    38900  19.45          0.0005         245.78487     -275.2146       2.0015219     -4719.2782      1292.0848    
ec    39000  19.5           0.0005         274.25065     -275.46101      2.2333298      5816.3693      1278.03      
ec    39100  19.55          0.0005         269.87074     -275.29851      2.1976624      1701.0477      1283.5982    
ec    39200  19.6           0.0005         280.59707     -275.03622      2.2850111     -7261.739       1295.3075    
ec    39300  19.65          0.0005         319.15678     -275.08335      2.5990179      3125.0817      1282.2836    
ec    39400  19.7           0.0005         339.69172     -275.11787      2.7662419      5602.7565      1279.4132    
ec    39500  19.75          0.0005         300.07288     -274.79579      2.4436102     -7437.4312      1295.4563    
ec    39600  19.8           0.0005         371.01214     -275.41173      3.0212962     -406.4215       1287.1714    
ec    39700  19.85          0.0005         271.38688     -274.71204      2.210009       7112.2098      1276.9771    
ec    39800  19.9           0.0005         319.56848     -275.24771      2.6023705     -3716.0395      1290.8987    
ec    39900  19.95          0.0005         282.99529     -275.15974      2.3045408     -5180.0458      1292.4531    
ec    40000  20             0.0005         249.61574     -275.09011      2.0327181      7254.5419      1276.4215    
ec    40100  20.05          0.0005         281.68065     -275.57786      2.2938351      723.18614      1284.7375    
ec    40200  20.1           0.0005         227.00218     -275.30804      1.8485671     -8291.5857      1295.6557    
ec    40300  20.15          0.0005         237.27245     -275.5212       1.9322019      5440.0955      1278.7689    
ec    40400  20.2           0.0005         210.77889     -275.32346      1.7164545      4285.8913      1279.345     
ec    40500  20.25          0.0005         307.48665     -275.8271       2.5039834     -7164.0741      1295.1422    
ec    40600  20.3           0.0005         249.89364     -275.02033      2.0349812     -507.88887      1285.8882    
ec    40700  20.35          0.0005         299.89856     -275.13664      2.4421907      8289.4795      1275.7755    
ec    40800  20.4           0.0005         337.82893     -275.29161      2.7510725     -5247.4612      1293.028     
ec    40900  20.45          0.0005         300.64406     -274.89371      2.4482616     -5300.6925      1292.613     
ec    41000  20.5           0.0005         333.49598     -275.02943      2.7157875      9162.2438      1275.1631    
ec    41100  20.55          0.0005         305.61272     -274.83925      2.4887233     -1471.6216      1287.8989    
ec    41200  20.6           0.0005         343.81027     -275.17205      2.7997809     -7860.1942      1296.6649    
ec    41300  20.65          0.0005         258.10216     -274.68909      2.1018263      5784.1503      1278.4512    
ec    41400  20.7           0.0005         277.48843     -275.09323      2.2596963      4695.1666      1280.1839    
ec    41500  20.75          0.0005         278.31711     -275.30796      2.2664445     -9357.9804      1297.6747    
ec    41600  20.8           0.0005         251.6098      -275.23758      2.0489565      1608.5773      1283.5042    
ec    41700  20.85          0.0005         261.08621     -275.25806      2.1261266      8801.8598      1274.7011    
ec    41800  20.9           0.0005         279.69385     -275.26544      2.2776558     -7361.9901      1295.1592    
ec    41900  20.95          0.0005         329.72781     -275.30883      2.6851018     -3419.98        1290.6379    
ec    42000  21             0.0005         307.2302      -274.76308      2.5018951      9702.0927      1274.1003    
ec    42100  21.05          0.0005         314.18632     -274.79444      2.5585415     -2708.4408      1289.7427    
ec    42200  21.1           0.0005         355.09337     -275.14655      2.8916635     -7694.914       1296.5767    
ec    42300  21.15          0.0005         316.59845     -274.9836       2.5781844      7363.9074      1276.4079    
ec    42400  21.2           0.0005         315.52261     -275.15727      2.5694234      3823.5913      1281.5452    
ec    42500  21.25          0.0005         250.03724     -274.79867      2.0361506     -10805.835      1299.4316    
ec    42600  21.3           0.0005         318.41822     -275.49965      2.5930035      3744.8103      1281.0657    
ec    42700  21.35          0.0005         246.81352     -274.99126      2.0098985      7987.9019      1275.3114    
ec    42800  21.4           0.0005         241.05465     -274.93473      1.9630019     -8877.1654      1297.0382    
ec    42900  21.45          0.0005         333.8053      -275.54997      2.7183065     -2372.1259      1288.8457    
ec    43000  21.5           0.0005         298.77067     -274.90495      2.4330058      10257.93       1272.6592    
ec    43100  21.55          0.0005         310.21287     -274.65814      2.5261842     -3450.4768      1291.5716    
ec    43200  21.6           0.0005         338.42408     -274.80209      2.755919      -9432.9284      1297.7727    
ec    43300  21.65          0.0005         389.47351     -275.22266      3.1716344      11153.675      1273.1561    
ec    43400  21.7           0.0005         272.45584     -274.55325      2.2187139      1354.5466      1284.2665    
ec    43500  21.75          0.0005         330.56915     -275.17263      2.6919532     -11101.346      1300.76      
ec    43600  21.8           0.0005         311.80455     -275.26108      2.5391458      5775.2809      1278.6501    
ec    43700  21.85          0.0005         279.92491     -275.09289      2.2795375      8058.5155      1275.5962    
ec    43800  21.9           0.0005         287.34783     -275.15546      2.3399852     -10555.177      1299.8453    
ec    43900  21.95          0.0005         264.59319     -275.00331      2.1546853     -1721.7268      1287.6016    
ec    44000  22             0.0005         296.44368     -275.12224      2.4140562      12825.082      1270.163     
ec    44100  22.05          0.0005         282.24368     -275.00488      2.2984201     -7320.9921      1294.9979    
ec    44200  22.1           0.0005         290.59174     -274.9856       2.3664016     -7636.3009      1296.0061    
ec    44300  22.15          0.0005         303.52439     -275.01582      2.4717172      11928.23       1270.6195    
ec    44400  22.2           0.0005         325.62374     -275.23416      2.6516808     -90.630761      1285.9067    
ec    44500  22.25          0.0005         280.2716      -274.80344      2.2823607     -12072.396      1301.9275    
ec    44600  22.3           0.0005         303.9644      -275.04718      2.4753004      7525.1347      1276.0776    
ec    44700  22.35          0.0005         357.53251     -275.48257      2.9115264      7572.1757      1276.4425    
ec    44800  22.4           0.0005         282.69496     -274.86504      2.3020951     -12680.783      1302.5867    
ec    44900  22.45          0.0005         286.78375     -274.97883      2.3353917      893.65023      1284.8021    
ec    45000  22.5           0.0005         344.27579     -275.39323      2.8035717      12242.027      1270.5516    
ec    45100  22.55          0.0005         246.68422     -274.68606      2.0088456     -8805.9385      1297.1863    
ec    45200  22.6           0.0005         292.13579     -275.14392      2.3789754     -5602.4679      1293.5284    
ec    45300  22.65          0.0005         281.51885     -275.14367      2.2925176      11980.061      1270.3894    
ec    45400  22.7           0.0005         283.32081     -275.29749      2.3071916     -1282.9018      1287.6546    
ec    45500  22.75          0.0005         243.60666     -274.98039      1.9837838     -10956.768      1299.852     
ec    45600  22.8           0.0005         296.58683     -275.35939      2.4152219      8803.3705      1274.6168    
ec    45700  22.85          0.0005         303.77802     -275.25304      2.4737826      5389.5184      1279.2281    
ec    45800  22.9           0.0005         273.63928     -274.73354      2.2283512     -12100.585      1301.3592    
ec    45900  22.95          0.0005         357.31922     -275.20262      2.9097894      3101.0215      1282.8536    
ec    46000  23             0.0005         307.52189     -274.68771      2.5042704      8826.8899      1274.7273    
ec    46100  23.05          0.0005         379.78322     -275.2714       3.0927225     -7955.2573      1296.6396    
ec    46200  23.1           0.0005         262.28535     -274.4924       2.1358916     -4339.4591      1291.6327    
ec    46300  23.15          0.0005         316.79046     -275.09595      2.579748       10658.576      1272.9148    
ec    46400  23.2           0.0005         294.75544     -275.27962      2.4003082     -3259.0885      1289.4844    
ec    46500  23.25          0.0005         240.24348     -275.0556       1.9563962     -7749.2514      1295.6975    
ec    46600  23.3           0.0005         274.0571      -275.39173      2.2317536      7947.3678      1275.7202    
ec    46700  23.35          0.0005         264.58092     -275.29215      2.1545854      2128.8184      1282.5185    
ec    46800  23.4           0.0005         301.54909     -275.44673      2.4556315     -7970.5066      1296.4798    
ec    46900  23.45          0.0005         245.50437     -274.87999      1.9992376      2597.1177      1282.3227    
ec    47000  23.5           0.0005         318.91267     -275.24788      2.5970299      6645.9601      1277.8194    
ec    47100  23.55          0.0005         337.6038      -275.21637      2.7492391     -6645.1298      1294.8346    
ec    47200  23.6           0.0005         305.09246     -274.84298      2.4844866     -1755.32        1288.5964    
ec    47300  23.65          0.0005         313.99375     -274.81094      2.5569733      7626.4124      1276.8328    
ec    47400  23.7           0.0005         341.04032     -275.07554      2.777224      -3237.0878      1290.3221    
ec    47500  23.75          0.0005         319.14797     -275.04102      2.5989461     -4994.5974      1292.5994    
ec    47600  23.8           0.0005         236.42272     -274.74719      1.9252822      5668.4599      1278.4767    
ec    47700  23.85          0.0005         268.24778     -275.30134      2.184446       1103.5052      1284.168     
ec    47800  23.9           0.0005         287.90221     -275.53504      2.3444997     -6285.4404      1293.4405    
ec    47900  23.95          0.0005         239.04059     -275.11151      1.9466005      2456.1503      1281.9769    
ec    48000  24             0.0005         284.86905     -275.31419      2.3197995      4570.6368      1280.2851    
ec    48100  24.05          0.0005         290.85364     -275.1797       2.3685343     -6054.799       1293.0945    
ec    48200  24.1           0.0005         301.2579      -275.0882       2.4532604     -68.260016      1286.4267    
ec    48300  24.15          0.0005         304.98719     -275.02036      2.4836294      5135.4383      1279.6589    
ec    48400  24.2           0.0005         324.79902     -275.13788      2.6449648     -2825.0886      1289.8256    
ec    48500  24.25          0.0005         328.89349     -275.1776       2.6783077     -3192.7252      1290.3914    
ec    48600  24.3           0.0005         280.94846     -274.82151      2.2878726      4697.7517      1280.3686    
ec    48700  24.35          0.0005         295.91075     -274.98901      2.4097164      652.38147      1285.7646    
ec    48800  24.4           0.0005         294.39707     -275.05479      2.3973899     -5240.3995      1292.3865    
ec    48900  24.45          0.0005         308.75031     -275.25578      2.5142739      3480.7713      1282.0553    
ec    49000  24.5           0.0005         222.38243     -274.80184      1.8109467      2146.3017      1282.7509    
ec    49100  24.55          0.0005         269.30847     -275.46102      2.1930837     -4056.3058      1290.9186    
ec    49200  24.6           0.0005         272.2581      -275.66189      2.2171037      139.20973      1284.9146    
ec    49300  24.65          0.0005         226.21569     -275.26875      1.8421624      4035.3877      1280.0971    
ec    49400  24.7           0.0005         273.4878      -275.44286      2.2271176     -2690.1023      1289.0989    
ec    49500  24.75          0.0005         308.59238     -275.45634      2.5129878     -2657.7622      1288.7073    
ec    49600  24.8           0.0005         280.99436     -275.01526      2.2882464      4594.7691      1280.3679    
ec    49700  24.85          0.0005         289.27774     -275.00044      2.3557012     -1199.6941      1287.2286    
ec    49800  24.9           0.0005         363.72011     -275.51136      2.9619144     -3394.4226      1290.5607    
ec    49900  24.95          0.0005         293.8803      -274.90636      2.3931816      2876.0588      1282.4438    
ec    50000  25             0.0005         275.0984      -274.7432       2.2402333      1407.3541      1284.2565    
ec    50100  25.05          0.0005         310.24272     -275.01933      2.5264272     -3609.5675      1290.9919    
ec    50200  25.1           0.0005         297.39004     -274.99782      2.4217628      601.45188      1285.1605    
ec    50300  25.15          0.0005         321.64954     -275.33872      2.6193174      3504.2531      1281.5994    
ec    50400  25.2           0.0005         243.77763     -274.95632      1.9851761     -3166.054       1289.732     
ec    50500  25.25          0.0005         276.47703     -275.39439      2.2514601     -1279.6911      1287.2021    
ec    50600  25.3           0.0005         285.84205     -275.54572      2.3277231      3928.7171      1280.5229    
ec    50700  25.35          0.0005         242.45807     -275.16726      1.9744304     -1279.2728      1287.1032    
ec    50800  25.4           0.0005         292.79432     -275.31182      2.3843381     -2838.0211      1289.5418    
ec    50900  25.45          0.0005         337.33693     -275.32322      2.7470659      2637.929       1282.3539    
ec    51000  25.5           0.0005         331.40785     -275.05221      2.6987831      1667.6624      1284.7506    
ec    51100  25.55          0.0005         255.85002     -274.41665      2.0834863     -4580.2912      1291.7137    
ec    51200  25.6           0.0005         375.34347     -275.40229      3.0565679      1761.6084      1284.0756    
ec    51300  25.65          0.0005         307.72839     -274.96209      2.505952       2711.9228      1282.8459    
ec    51400  25.7           0.0005         255.86544     -274.68917      2.0836119     -3527.7261      1290.6394    
ec    51500  25.75          0.0005         299.05174     -275.21171      2.4352947     -265.3493       1286.37      
ec    51600  25.8           0.0005         260.21294     -275.06251      2.1190152      3220.3861      1281.3764    
ec    51700  25.85          0.0005         292.46961     -275.45127      2.3816939     -1215.9272      1287.7616    
ec    51800  25.9           0.0005         234.9064      -275.13079      1.9129343     -3058.9903      1289.1524    
ec    51900  25.95          0.0005         272.87249     -275.55595      2.2221068      3791.1267      1280.6578    
ec    52000  26             0.0005         266.56735     -275.58786      2.1707616      159.227        1285.0455    
ec    52100  26.05          0.0005         255.54388     -275.41287      2.0809932     -3623.7591      1290.3042    
ec    52200  26.1           0.0005         287.98391     -275.39131      2.3451651      2119.3239      1282.7846    
ec    52300  26.15          0.0005         308.26842     -275.25518      2.5103497      2109.886       1282.9487    
ec    52400  26.2           0.0005         305.8544      -275.01882      2.4906914     -3620.8893      1291.1163    
ec    52500  26.25          0.0005         261.76238     -274.56863      2.1316329     -399.66197      1286.5203    
ec    52600  26.3           0.0005         334.73196     -275.08285      2.7258526      4368.8548      1280.7171    
ec    52700  26.35          0.0005         321.35093     -275.00216      2.6168857     -3264.5789      1290.2324    
ec    52800  26.4           0.0005         277.62991     -274.74488      2.2608484     -2450.5525      1289.5964    
ec    52900  26.45          0.0005         315.26157     -275.24229      2.5672977      5068.7745      1279.7181    
ec    53000  26.5           0.0005         248.43428     -275.00231      2.0230971     -1084.4395      1286.8187    
ec    53100  26.55          0.0005         277.52882     -275.43048      2.2600252     -4227.1856      1291.4316    
ec    53200  26.6           0.0005         280.21463     -275.53359      2.2818967      3809.2338      1280.7196    
ec    53300  26.65          0.0005         279.67324     -275.45452      2.277488       2622.0329      1282.2605    
ec    53400  26.7           0.0005         280.42698     -275.25126      2.2836261     -5754.4119      1293.3106    
ec    53500  26.75          0.0005         273.99917     -274.96962      2.2312819      1178.4884      1284.718     
ec    53600  26.8           0.0005         326.11576     -275.22301      2.6556875      6038.5435      1278.8185    
ec    53700  26.85          0.0005         311.31809     -275.08079      2.5351844     -5793.5281      1293.0788    
ec    53800  26.9           0.0005         308.51382     -275.03722      2.5123481     -2186.6754      1289.4822    
ec    53900  26.95          0.0005         256.62393     -274.63887      2.0897885      7149.4165      1276.9118    
ec    54000  27             0.0005         339.86696     -275.35386      2.7676689     -1903.5361      1288.6423    
ec    54100  27.05          0.0005         272.24037     -274.86586      2.2169593     -7482.307       1295.5229    
ec    54200  27.1           0.0005         277.42015     -274.99569      2.2591402      7039.5134      1277.0447    
ec    54300  27.15          0.0005         321.67224     -275.45845      2.6195022      3290.7767      1281.8772    
ec    54400  27.2           0.0005         262.88809     -275.04491      2.1408        -10641.248      1299.2646    
ec    54500  27.25          0.0005         267.89405     -275.1746       2.1815655      3953.4831      1281.0658    
ec    54600  27.3           0.0005         284.57215     -275.30434      2.3173817      8263.8217      1275.0955    
ec    54700  27.35          0.0005         334.55976     -275.57829      2.7244503     -9135.2016      1298.2362    
ec    54800  27.4           0.0005         267.93997     -274.84815      2.1819395     -3207.3538      1290.0983    
ec    54900  27.45          0.0005         319.83287     -274.93119      2.6045235      12674.415      1270.7787    
ec    55000  27.5           0.0005         311.45418     -274.73025      2.5362926     -4754.9632      1293.2715    
ec    55100  27.55          0.0005         347.52823     -274.96205      2.8300576     -9965.0686      1299.4035    
ec    55200  27.6           0.0005         332.00417     -274.88025      2.7036392      12430.523      1271.4969    
ec    55300  27.65          0.0005         282.9233      -274.76591      2.3039546      1984.7591      1283.7068    
ec    55400  27.7           0.0005         304.8191      -275.14905      2.4822605     -13044.485      1303.4479    
ec    55500  27.75          0.0005         260.7637      -275.08437      2.1235003      6328.4569      1277.8197    
ec    55600  27.8           0.0005         271.21153     -275.21365      2.208581       9931.5223      1273.3985    
ec    55700  27.85          0.0005         278.3422      -275.22046      2.2666488     -12944.508      1302.5899    
ec    55800  27.9           0.0005         309.39801     -275.45538      2.5195484     -1730.2666      1287.8708    
ec    55900  27.95          0.0005         269.66268     -274.92484      2.1959681      14612.983      1268.0778    
ec    56000  28             0.0005         280.0084      -274.92716      2.2802173     -8329.142       1296.4942    
ec    56100  28.05          0.0005         356.82212     -275.36126      2.9057414     -8788.8263      1297.7683    
ec    56200  28.1           0.0005         325.41733     -274.9418       2.6499999      13491.457      1269.5518    
ec    56300  28.15          0.0005         296.40999     -274.70199      2.4137819     -14.430213      1286.3663    
ec    56400  28.2           0.0005         329.19395     -274.87479      2.6807544     -12970.512      1303.6195    
ec    56500  28.25          0.0005         295.05019     -274.79333      2.4027085      8066.5618      1276.2754    
ec    56600  28.3           0.0005         310.04178     -275.25859      2.5247909      7970.9489      1276.2635    
ec    56700  28.35          0.0005         258.86927     -275.1164       2.1080732     -12796.975      1302.3814    
ec    56800  28.4           0.0005         287.45638     -275.49026      2.3408691      1152.1177      1284.5347    
ec    56900  28.45          0.0005         249.79313     -275.11694      2.0341627      11685.687      1271.0783    
ec    57000  28.5           0.0005         254.47902     -275.04533      2.0723217     -7790.191       1296.2058    
ec    57100  28.55          0.0005         336.56073     -275.45633      2.740745      -5976.6842      1293.7812    
ec    57200  28.6           0.0005         288.49298     -274.80776      2.3493106      11226.175      1272.0152    
ec    57300  28.65          0.0005         340.7512      -275.14432      2.7748697     -859.08356      1288.145     
ec    57400  28.7           0.0005         262.45263     -274.47101      2.1372539     -10615.732      1299.8918    
ec    57500  28.75          0.0005         339.63503     -275.12373      2.7657802      8174.5332      1276.3121    
ec    57600  28.8           0.0005         321.36669     -275.09167      2.617014       4249.7342      1280.7842    
ec    57700  28.85          0.0005         306.41644     -275.01224      2.4952683     -10108.588      1299.5221    
ec    57800  28.9           0.0005         292.64394     -275.03392      2.3831135      1928.2514      1283.5458    
ec    57900  28.95          0.0005         275.32393     -274.93319      2.2420699      8359.0756      1275.5527    
ec    58000  29             0.0005         312.84886     -275.2863       2.54765       -7049.5662      1295.3734    
ec    58100  29.05          0.0005         254.72632     -274.88121      2.0743355     -3844.7353      1290.7161    
ec    58200  29.1           0.0005         344.07006     -275.57378      2.8018964      9528.5398      1274.2613    
ec    58300  29.15          0.0005         268.32541     -274.97783      2.1850783     -3028.9183      1289.6519    
ec    58400  29.2           0.0005         268.41627     -274.87379      2.1858181     -6522.8505      1294.9826    
ec    58500  29.25          0.0005         324.03618     -275.19344      2.6387527      6838.9454      1277.7114    
ec    58600  29.3           0.0005         325.94661     -275.11027      2.6543101      1940.1083      1283.709     
ec    58700  29.35          0.0005         314.84978     -274.88897      2.5639443     -7281.3316      1296.4233    
ec    58800  29.4           0.0005         326.59426     -274.97999      2.6595841      2279.3173      1283.4334    
ec    58900  29.45          0.0005         318.79876     -274.93104      2.5961023      6048.2832      1279.0372    
ec    59000  29.5           0.0005         270.86365     -274.70211      2.2057481     -6325.6849      1294.5527    
ec    59100  29.55          0.0005         331.78858     -275.42974      2.7018835     -1633.0859      1288.2092    
ec    59200  29.6           0.0005         281.2206      -275.22824      2.2900888      7171.3649      1276.9441    
ec    59300  29.65          0.0005         253.04937     -275.16015      2.0606795     -3066.3579      1289.6635    
ec    59400  29.7           0.0005         280.12211     -275.40198      2.2811433     -4649.0315      1291.9547    
ec    59500  29.75          0.0005         255.26402     -275.12284      2.0787143      5684.6449      1278.4454    
ec    59600  29.8           0.0005         305.5209      -275.19045      2.4879756      1511.3453      1284.5654    
ec    59700  29.85          0.0005         340.84475     -275.03554      2.7756315     -7032.3468      1295.2177    
ec    59800  29.9           0.0005         310.2797      -274.65609      2.5267284      3230.0024      1282.6636    
ec    59900  29.95          0.0005         301.78196     -274.62952      2.457528       4550.9768      1281.0864    
Fix halt condition for fix-id myhalt met on step 60000 with value 30 (../fix_halt.cpp:240)
ec    60000  30             0.0005         344.73343     -275.10461      2.8072985     -6492.1855      1294.4363    
Loop time of 2.33192 on 2 procs for 60000 steps with 64 atoms

Performance: 1111.530 ns/day, 0.022 hours/ns, 25729.869 timesteps/s, 1.647 Matom-step/s
99.7% CPU use with 2 MPI tasks x no OpenMP threads

MPI task timing breakdown:
Section |  min time  |  avg time  |  max time  |%varavg| %total
---------------------------------------------------------------
Pair    | 1.6907     | 1.6925     | 1.6944     |   0.1 | 72.58
Neigh   | 0          | 0          | 0          |   0.0 |  0.00
Comm    | 0.42711    | 0.42786    | 0.4286     |   0.1 | 18.35
Output  | 0.0034535  | 0.0087314  | 0.014009   |   5.6 |  0.37
Modify  | 0.15896    | 0.16473    | 0.1705     |   1.4 |  7.06
Other   |            | 0.03805    |            |       |  1.63

Nlocal:             32 ave          32 max          32 min
Histogram: 2 0 0 0 0 0 0 0 0 0
Nghost:            444 ave         444 max         444 min
Histogram: 2 0 0 0 0 0 0 0 0 0
Neighs:              0 ave           0 max           0 min
Histogram: 2 0 0 0 0 0 0 0 0 0
FullNghs:         1088 ave        1088 max        1088 min
Histogram: 2 0 0 0 0 0 0 0 0 0

Total # of neighbors = 2176
Ave neighs/atom = 34
Neighbor list builds = 0
Dangerous builds = 0

unfix myhalt

fix myhalt all halt 100 v_t >= 60.0 error continue

unfix NPT

fix NVT all nvt temp ${temp} ${temp} ${tau_T}
fix NVT all nvt temp 300 ${temp} ${tau_T}
fix NVT all nvt temp 300 300 ${tau_T}
fix NVT all nvt temp 300 300 0.1

run 10000000
Per MPI rank memory allocation (min/avg/max) = 3.57 | 3.57 | 3.57 Mbytes
   Step          Time            Dt            Temp          PotEng         KinEng         Press          Volume    
ec    60000  30             0.0005         344.73343     -275.10461      2.8072985     -6492.1855      1294.4363    
ec    60100  30.05          0.0005         314.33626     -274.93338      2.5597625     -5854.8466      1294.4363    
ec    60200  30.1           0.0005         299.19953     -275.00844      2.4364982     -6619.7913      1294.4363    
ec    60300  30.15          0.0005         316.36544     -275.34471      2.5762869     -6322.4616      1294.4363    
ec    60400  30.2           0.0005         228.32991     -274.89066      1.8593793     -6800.289       1294.4363    
ec    60500  30.25          0.0005         276.91682     -275.43955      2.2550414     -6649.3235      1294.4363    
ec    60600  30.3           0.0005         282.24822     -275.54867      2.2984571     -6997.7876      1294.4363    
ec    60700  30.35          0.0005         256.8725      -275.26024      2.0918128     -6780.093       1294.4363    
ec    60800  30.4           0.0005         302.11928     -275.16192      2.4602749     -6310.0875      1294.4363    
ec    60900  30.45          0.0005         274.32087     -274.59156      2.2339016     -6500.2076      1294.4363    
ec    61000  30.5           0.0005         335.48216     -274.90576      2.7319618     -5631.5522      1294.4363    
ec    61100  30.55          0.0005         336.91096     -274.91824      2.7435971     -6427.0089      1294.4363    
ec    61200  30.6           0.0005         321.52423     -274.86959      2.6182969     -5855.0284      1294.4363    
ec    61300  30.65          0.0005         309.70563     -274.99373      2.5220535     -6288.9982      1294.4363    
ec    61400  30.7           0.0005         293.96894     -275.07934      2.3939034     -6409.127       1294.4363    
ec    61500  30.75          0.0005         271.7974      -275.08517      2.213352      -6335.1675      1294.4363    
ec    61600  30.8           0.0005         290.91776     -275.34028      2.3690565     -6757.5383      1294.4363    
ec    61700  30.85          0.0005         317.78482     -275.55042      2.5878455     -6502.271       1294.4363    
ec    61800  30.9           0.0005         239.61865     -274.84163      1.9513079     -6599.7588      1294.4363    
ec    61900  30.95          0.0005         298.34371     -275.01496      2.429529      -6227.8732      1294.4363    
ec    62000  31             0.0005         339.41476     -274.89455      2.7639865     -6047.2297      1294.4363    
ec    62100  31.05          0.0005         324.51363     -274.61292      2.6426408     -6078.5294      1294.4363    
ec    62200  31.1           0.0005         386.50709     -275.158        3.1474776     -5822.9382      1294.4363    
ec    62300  31.15          0.0005         275.48253     -274.44282      2.2433615     -6261.2262      1294.4363    
ec    62400  31.2           0.0005         326.52539     -275.04527      2.6590234     -6136.904       1294.4363    
ec    62500  31.25          0.0005         277.05239     -274.86033      2.2561454     -6430.516       1294.4363    
ec    62600  31.3           0.0005         316.7189      -275.29723      2.5791653     -6440.3416      1294.4363    
ec    62700  31.35          0.0005         304.02832     -275.26822      2.4758209     -6635.6999      1294.4363    
ec    62800  31.4           0.0005         276.43151     -275.05438      2.2510894     -6482.6372      1294.4363    
ec    62900  31.45          0.0005         283.7165      -275.06896      2.3104139     -6232.8618      1294.4363    
ec    63000  31.5           0.0005         267.52731     -274.86906      2.178579      -6597.3958      1294.4363    
ec    63100  31.55          0.0005         383.08892     -275.56326      3.1196422     -5882.4284      1294.4363    
ec    63200  31.6           0.0005         289.46461     -274.33509      2.3572229     -6058.866       1294.4363    
ec    63300  31.65          0.0005         392.06184     -274.81997      3.1927121     -5242.376       1294.4363    
ec    63400  31.7           0.0005         336.20479     -274.41683      2.7378464     -5586.0763      1294.4363    
ec    63500  31.75          0.0005         333.05175     -274.60552      2.71217       -5804.5733      1294.4363    
ec    63600  31.8           0.0005         336.71072     -274.94419      2.7419664     -5798.4543      1294.4363    
ec    63700  31.85          0.0005         323.43606     -275.06564      2.6338657     -6401.7067      1294.4363    
ec    63800  31.9           0.0005         321.00086     -275.19303      2.614035      -6210.3628      1294.4363    
ec    63900  31.95          0.0005         238.51783     -274.65483      1.9423435     -6450.9309      1294.4363    
ec    64000  32             0.0005         317.24786     -275.3498       2.5834728     -6449.3374      1294.4363    
ec    64100  32.05          0.0005         297.71303     -275.23125      2.424393      -6633.8477      1294.4363    
ec    64200  32.1           0.0005         280.49162     -275.08371      2.2841524     -6622.8319      1294.4363    
ec    64300  32.15          0.0005         293.38936     -275.07536      2.3891838     -6293.7335      1294.4363    
ec    64400  32.2           0.0005         319.21169     -275.03459      2.599465      -6480.2296      1294.4363    
[...]
ec   104300  52.15          0.0005         310.62312     -275.08081      2.5295249     -6159.5155      1294.4363    
ec   104400  52.2           0.0005         290.34861     -274.9306       2.3644217     -6258.8121      1294.4363    
ec   104500  52.25          0.0005         308.87657     -275.10244      2.5153021     -6311.9128      1294.4363    
ec   104600  52.3           0.0005         307.58879     -275.11658      2.5048152     -6284.0846      1294.4363    
ec   104700  52.35          0.0005         266.95784     -274.86068      2.1739416     -6498.7595      1294.4363    
ec   104800  52.4           0.0005         328.87566     -275.44353      2.6781624     -6101.4952      1294.4363    
ec   104900  52.45          0.0005         238.89976     -274.84538      1.9454537     -6743.7939      1294.4363    
ec   105000  52.5           0.0005         292.66172     -275.34791      2.3832582     -6382.3302      1294.4363    
ec   105100  52.55          0.0005         283.2066      -275.30465      2.3062615     -6712.2287      1294.4363    
ec   105200  52.6           0.0005         273.67603     -275.1542       2.2286504     -6331.0187      1294.4363    
ec   105300  52.65          0.0005         296.11098     -275.11058      2.4113469     -6403.4118      1294.4363    
ec   105400  52.7           0.0005         303.95581     -274.90086      2.4752304     -6189.6216      1294.4363    
ec   105500  52.75          0.0005         346.56116     -275.0179       2.8221824     -5690.3729      1294.4363    
ec   105600  52.8           0.0005         307.29974     -274.64864      2.5024613     -6173.5425      1294.4363    
ec   105700  52.85          0.0005         355.07112     -275.07198      2.8914823     -5756.5525      1294.4363    
ec   105800  52.9           0.0005         307.52687     -274.85714      2.5043109     -6255.4199      1294.4363    
ec   105900  52.95          0.0005         293.02809     -274.94546      2.3862417     -6103.589       1294.4363    
ec   106000  53             0.0005         288.60476     -275.11018      2.3502209     -6354.8737      1294.4363    
ec   106100  53.05          0.0005         295.19359     -275.25714      2.4038762     -6714.8166      1294.4363    
ec   106200  53.1           0.0005         280.10184     -275.135        2.2809783     -6275.5438      1294.4363    
ec   106300  53.15          0.0005         267.61475     -275.00601      2.1792911     -6490.6052      1294.4363    
ec   106400  53.2           0.0005         316.17755     -275.31847      2.5747569     -6496.2174      1294.4363    
ec   106500  53.25          0.0005         275.96077     -274.89971      2.247256      -6302.0648      1294.4363    
ec   106600  53.3           0.0005         305.70852     -275.02021      2.4895034     -6181.5618      1294.4363    
ec   106700  53.35          0.0005         352.67877     -275.25111      2.8720005     -6132.9333      1294.4363    
ec   106800  53.4           0.0005         299.35491     -274.71262      2.4377636     -6215.4277      1294.4363    
ec   106900  53.45          0.0005         337.88182     -274.92109      2.7515031     -5625.8298      1294.4363    
ec   107000  53.5           0.0005         340.51718     -274.9402       2.7729639     -6243.0236      1294.4363    
ec   107100  53.55          0.0005         305.43919     -274.77371      2.4873102     -5810.8081      1294.4363    
ec   107200  53.6           0.0005         310.94661     -275.13772      2.5321593     -6402.2861      1294.4363    
ec   107300  53.65          0.0005         269.23279     -275.05395      2.1924674     -6414.2908      1294.4363    
ec   107400  53.7           0.0005         253.38432     -275.07119      2.0634072     -6371.0117      1294.4363    
ec   107500  53.75          0.0005         298.02658     -275.46955      2.4269464     -6944.1299      1294.4363    
ec   107600  53.8           0.0005         277.52898     -275.21746      2.2600265     -6262.2113      1294.4363    
ec   107700  53.85          0.0005         245.2841      -274.78246      1.9974439     -6583.8419      1294.4363    
ec   107800  53.9           0.0005         372.46221     -275.49167      3.0331047     -6004.7841      1294.4363    
ec   107900  53.95          0.0005         282.58441     -274.5468       2.3011948     -6315.2319      1294.4363    
ec   108000  54             0.0005         310.86284     -274.69727      2.5314771     -5685.5547      1294.4363    
ec   108100  54.05          0.0005         390.91318     -275.40914      3.1833582     -6220.2963      1294.4363    
ec   108200  54.1           0.0005         290.44533     -274.68045      2.3652093     -6125.2915      1294.4363    
ec   108300  54.15          0.0005         296.59554     -274.85413      2.4152929     -5922.0686      1294.4363    
ec   108400  54.2           0.0005         323.17336     -275.2032       2.6317264     -6582.4111      1294.4363    
ec   108500  54.25          0.0005         285.71868     -274.99414      2.3267184     -6026.8557      1294.4363    
ec   108600  54.3           0.0005         280.09441     -275.05869      2.2809178     -6601.6042      1294.4363    
ec   108700  54.35          0.0005         298.34628     -275.26006      2.4295499     -6378.4825      1294.4363    
ec   108800  54.4           0.0005         250.6031      -274.91021      2.0407586     -6379.3115      1294.4363    
ec   108900  54.45          0.0005         300.12444     -275.32754      2.4440301     -6515.419       1294.4363    
ec   109000  54.5           0.0005         289.30278     -275.18188      2.3559051     -6355.0669      1294.4363    
ec   109100  54.55          0.0005         255.1703      -274.7624       2.077951      -6200.4337      1294.4363    
ec   109200  54.6           0.0005         364.65528     -275.44518      2.9695298     -6189.0042      1294.4363    
ec   109300  54.65          0.0005         303.61476     -274.78684      2.4724531     -5997.5992      1294.4363    
ec   109400  54.7           0.0005         277.25132     -274.45587      2.2577653     -5751.1038      1294.4363    
ec   109500  54.75          0.0005         393.69251     -275.37185      3.2059913     -5955.2583      1294.4363    
ec   109600  54.8           0.0005         302.9079      -274.75255      2.4666969     -6186.6799      1294.4363    
ec   109700  54.85          0.0005         287.3915      -274.88048      2.3403409     -5821.8769      1294.4363    
ec   109800  54.9           0.0005         289.4486      -275.23043      2.3570926     -6716.837       1294.4363    
ec   109900  54.95          0.0005         285.4306      -275.3402       2.3243725     -6436.8101      1294.4363    
ec   110000  55             0.0005         239.24285     -275.00533      1.9482476     -6488.5123      1294.4363    
ec   110100  55.05          0.0005         284.89231     -275.30774      2.319989      -6590.8155      1294.4363    
ec   110200  55.1           0.0005         292.31919     -275.23457      2.3804689     -6336.7983      1294.4363    
ec   110300  55.15          0.0005         287.09987     -275.07274      2.337966      -6448.6853      1294.4363    
ec   110400  55.2           0.0005         302.21902     -275.07886      2.4610871     -5979.2959      1294.4363    
ec   110500  55.25          0.0005         278.56593     -274.83922      2.2684708     -6470.404       1294.4363    
ec   110600  55.3           0.0005         367.40599     -275.51101      2.99193       -5978.5609      1294.4363    
ec   110700  55.35          0.0005         270.55996     -274.74721      2.203275      -6445.1754      1294.4363    
ec   110800  55.4           0.0005         318.79632     -275.13433      2.5960825     -6041.7327      1294.4363    
ec   110900  55.45          0.0005         315.38229     -275.13303      2.5682807     -6325.1644      1294.4363    
ec   111000  55.5           0.0005         278.88504     -274.87466      2.2710694     -6388.2042      1294.4363    
ec   111100  55.55          0.0005         285.99382     -274.97975      2.328959      -6083.9051      1294.4363    
ec   111200  55.6           0.0005         286.41525     -275.14115      2.3323908     -6624.84        1294.4363    
ec   111300  55.65          0.0005         282.48744     -275.35883      2.3004052     -6552.1322      1294.4363    
ec   111400  55.7           0.0005         243.12606     -275.2359       1.9798701     -6883.9661      1294.4363    
ec   111500  55.75          0.0005         252.96466     -275.34936      2.0599896     -6598.4639      1294.4363    
ec   111600  55.8           0.0005         268.89241     -275.36691      2.1896956     -6763.6646      1294.4363    
ec   111700  55.85          0.0005         307.56371     -275.41955      2.504611      -6538.0704      1294.4363    
ec   111800  55.9           0.0005         265.89038     -274.79258      2.1652488     -5952.5356      1294.4363    
ec   111900  55.95          0.0005         329.80861     -275.15969      2.6857599     -6213.4363      1294.4363    
ec   112000  56             0.0005         342.80913     -275.19277      2.7916282     -6004.9516      1294.4363    
ec   112100  56.05          0.0005         260.37589     -274.52924      2.1203422     -5922.881       1294.4363    
ec   112200  56.1           0.0005         325.46094     -275.10003      2.6503551     -6123.5316      1294.4363    
ec   112300  56.15          0.0005         340.3254      -275.31345      2.7714022     -6069.5491      1294.4363    
ec   112400  56.2           0.0005         244.70679     -274.73724      1.9927426     -6394.1301      1294.4363    
ec   112500  56.25          0.0005         277.90333     -275.29027      2.263075      -6486.537       1294.4363    
ec   112600  56.3           0.0005         249.50104     -275.31416      2.0317841     -6846.542       1294.4363    
ec   112700  56.35          0.0005         254.30582     -275.43053      2.0709113     -6719.9432      1294.4363    
ec   112800  56.4           0.0005         267.11829     -275.47247      2.1752482     -7110.8942      1294.4363    
ec   112900  56.45          0.0005         246.19287     -275.06653      2.0048443     -6568.7588      1294.4363    
ec   113000  56.5           0.0005         318.44561     -275.3936       2.5932265     -6477.7566      1294.4363    
ec   113100  56.55          0.0005         302.19805     -275.16138      2.4609163     -6733.1303      1294.4363    
ec   113200  56.6           0.0005         280.40053     -274.90837      2.2834107     -6116.9914      1294.4363    
ec   113300  56.65          0.0005         331.2955      -275.28151      2.6978682     -6676.2898      1294.4363    
ec   113400  56.7           0.0005         344.48495     -275.32047      2.805275      -6143.6689      1294.4363    
ec   113500  56.75          0.0005         241.81046     -274.45731      1.9691567     -6342.0245      1294.4363    
ec   113600  56.8           0.0005         317.91006     -275.03699      2.5888654     -6095.8945      1294.4363    
ec   113700  56.85          0.0005         329.87446     -275.13795      2.6862961     -6308.0355      1294.4363    
ec   113800  56.9           0.0005         266.15585     -274.68268      2.1674107     -6080.6199      1294.4363    
ec   113900  56.95          0.0005         320.66485     -275.24892      2.6112986     -6218.7114      1294.4363    
ec   114000  57             0.0005         258.7597      -274.93937      2.1071809     -6666.9925      1294.4363    
ec   114100  57.05          0.0005         300.8222      -275.44278      2.4497122     -6252.6475      1294.4363    
ec   114200  57.1           0.0005         269.25107     -275.31951      2.1926162     -6793.8944      1294.4363    
ec   114300  57.15          0.0005         245.87687     -275.14008      2.0022711     -6596.8588      1294.4363    
ec   114400  57.2           0.0005         317.6143      -275.58015      2.5864568     -6545.1504      1294.4363    
ec   114500  57.25          0.0005         288.09169     -275.0158       2.3460427     -6380.1482      1294.4363    
ec   114600  57.3           0.0005         279.31332     -274.6036       2.274557      -5945.364       1294.4363    
ec   114700  57.35          0.0005         338.46492     -274.97482      2.7562515     -6246.0311      1294.4363    
ec   114800  57.4           0.0005         353.70139     -275.10033      2.8803281     -5908.5528      1294.4363    
ec   114900  57.45          0.0005         256.10683     -274.43274      2.0855776     -6220.4818      1294.4363    
ec   115000  57.5           0.0005         331.37897     -275.19788      2.6985479     -6368.5243      1294.4363    
ec   115100  57.55          0.0005         300.74095     -275.15818      2.4490506     -6458.7417      1294.4363    
ec   115200  57.6           0.0005         245.83879     -274.89762      2.001961      -6622.3022      1294.4363    
ec   115300  57.65          0.0005         312.4409      -275.53601      2.5443278     -6561.0543      1294.4363    
ec   115400  57.7           0.0005         259.08602     -275.14737      2.1098383     -7029.1237      1294.4363    
ec   115500  57.75          0.0005         303.40468     -275.38277      2.4707424     -6463.1931      1294.4363    
ec   115600  57.8           0.0005         289.82367     -274.83403      2.3601469     -6204.1298      1294.4363    
ec   115700  57.85          0.0005         324.28813     -274.76055      2.6408045     -6029.1669      1294.4363    
ec   115800  57.9           0.0005         356.07146     -274.90536      2.8996284     -5982.4701      1294.4363    
ec   115900  57.95          0.0005         325.98346     -274.72624      2.6546102     -5758.3898      1294.4363    
ec   116000  58             0.0005         318.77628     -274.87431      2.5959193     -5873.5035      1294.4363    
ec   116100  58.05          0.0005         303.46746     -275.02695      2.4712536     -6554.7211      1294.4363    
ec   116200  58.1           0.0005         295.68227     -275.15893      2.4078558     -5999.2613      1294.4363    
ec   116300  58.15          0.0005         255.00707     -274.96103      2.0766218     -6566.1979      1294.4363    
ec   116400  58.2           0.0005         312.82723     -275.44454      2.5474739     -6359.7501      1294.4363    
ec   116500  58.25          0.0005         268.77055     -275.05036      2.1887032     -6400.1213      1294.4363    
ec   116600  58.3           0.0005         288.47466     -275.09775      2.3491614     -6418.8938      1294.4363    
ec   116700  58.35          0.0005         308.49543     -274.96129      2.5121983     -5879.9983      1294.4363    
ec   116800  58.4           0.0005         334.86854     -274.77628      2.7269648     -6091.9616      1294.4363    
ec   116900  58.45          0.0005         376.42243     -274.86432      3.0653544     -5748.0724      1294.4363    
ec   117000  58.5           0.0005         306.28496     -274.35109      2.4941977     -5606.1145      1294.4363    
ec   117100  58.55          0.0005         346.88036     -274.81902      2.8247818     -5790.4877      1294.4363    
ec   117200  58.6           0.0005         337.24849     -274.95887      2.7463457     -6181.3732      1294.4363    
ec   117300  58.65          0.0005         283.94638     -274.74424      2.3122858     -6239.3773      1294.4363    
ec   117400  58.7           0.0005         303.93566     -275.06567      2.4750664     -6125.0796      1294.4363    
ec   117500  58.75          0.0005         320.14382     -275.33161      2.6070557     -6754.7027      1294.4363    
ec   117600  58.8           0.0005         260.88886     -274.92126      2.1245195     -6331.4147      1294.4363    
ec   117700  58.85          0.0005         280.11283     -275.11404      2.2810678     -6537.701       1294.4363    
ec   117800  58.9           0.0005         312.5778      -275.34764      2.5454427     -6490.9339      1294.4363    
ec   117900  58.95          0.0005         298.6112      -275.08092      2.4317072     -6262.0366      1294.4363    
ec   118000  59             0.0005         310.86199     -274.82447      2.5314702     -6298.7975      1294.4363    
ec   118100  59.05          0.0005         347.89664     -274.78202      2.8330577     -5515.3018      1294.4363    
ec   118200  59.1           0.0005         323.8553      -274.52265      2.6372798     -6006.9593      1294.4363    
ec   118300  59.15          0.0005         345.50979     -274.79603      2.8136207     -5666.3664      1294.4363    
ec   118400  59.2           0.0005         306.331       -274.76581      2.4945725     -6133.2563      1294.4363    
ec   118500  59.25          0.0005         288.26718     -274.85729      2.3474718     -6027.2182      1294.4363    
ec   118600  59.3           0.0005         323.98329     -275.30409      2.638322      -6281.0867      1294.4363    
ec   118700  59.35          0.0005         258.18596     -274.83924      2.1025087     -6421.0852      1294.4363    
ec   118800  59.4           0.0005         299.7954      -275.1771       2.4413506     -6126.4662      1294.4363    
ec   118900  59.45          0.0005         308.5278      -275.2394       2.5124619     -6487.7923      1294.4363    
ec   119000  59.5           0.0005         296.68783     -275.0808       2.4160444     -6019.1027      1294.4363    
ec   119100  59.55          0.0005         290.86449     -274.94312      2.3686227     -6431.8787      1294.4363    
ec   119200  59.6           0.0005         333.14305     -275.08057      2.7129135     -5812.8205      1294.4363    
ec   119300  59.65          0.0005         341.61854     -274.79435      2.7819327     -5867.6117      1294.4363    
ec   119400  59.7           0.0005         322.08737     -274.3614       2.6228828     -5744.7492      1294.4363    
ec   119500  59.75          0.0005         365.51214     -274.67035      2.9765076     -5419.0352      1294.4363    
ec   119600  59.8           0.0005         306.15101     -274.42815      2.4931068     -5960.0444      1294.4363    
ec   119700  59.85          0.0005         333.71459     -275.01579      2.7175678     -6051.1589      1294.4363    
ec   119800  59.9           0.0005         284.29472     -274.83901      2.3151225     -6219.3828      1294.4363    
ec   119900  59.95          0.0005         302.69068     -275.06003      2.464928      -6454.943       1294.4363    
Fix halt condition for fix-id myhalt met on step 120000 with value 60 (../fix_halt.cpp:240)
ec   120000  60             0.0005         308.04982     -275.15776      2.5085696     -6253.0489      1294.4363    
Loop time of 2.09641 on 2 procs for 60000 steps with 64 atoms

Performance: 1236.399 ns/day, 0.019 hours/ns, 28620.342 timesteps/s, 1.832 Matom-step/s
99.9% CPU use with 2 MPI tasks x no OpenMP threads

MPI task timing breakdown:
Section |  min time  |  avg time  |  max time  |%varavg| %total
---------------------------------------------------------------
Pair    | 1.4232     | 1.4744     | 1.5255     |   4.2 | 70.33
Neigh   | 0          | 0          | 0          |   0.0 |  0.00
Comm    | 0.46308    | 0.51325    | 0.56342    |   7.0 | 24.48
Output  | 0.0039761  | 0.0063201  | 0.0086641  |   2.9 |  0.30
Modify  | 0.059188   | 0.060412   | 0.061637   |   0.5 |  2.88
Other   |            | 0.04205    |            |       |  2.01

Nlocal:             32 ave          33 max          31 min
Histogram: 1 0 0 0 0 0 0 0 0 1
Nghost:            444 ave         445 max         443 min
Histogram: 1 0 0 0 0 0 0 0 0 1
Neighs:              0 ave           0 max           0 min
Histogram: 2 0 0 0 0 0 0 0 0 0
FullNghs:         1097 ave        1132 max        1062 min
Histogram: 1 0 0 0 0 0 0 0 0 1

Total # of neighbors = 2194
Ave neighs/atom = 34.28125
Neighbor list builds = 0
Dangerous builds = 0

write_data cell.data_${temp}
write_data cell.data_300
System init for write_data ...
Total wall time: 0:00:04
