

units metal
timestep 0.001
boundary p p p

lattice         diamond 5.43
Lattice spacing in x,y,z = 5.43 5.43 5.43
region          box block 0 ${N} 0 ${N} 0 ${N}
region          box block 0 4 0 ${N} 0 ${N}
region          box block 0 4 0 4 0 ${N}
region          box block 0 4 0 4 0 4
create_box      1 box
Created orthogonal box = (0 0 0) to (21.72 21.72 21.72)
  1 by 1 by 2 MPI processor grid
create_atoms    1 box
Created 512 atoms
  using lattice units in orthogonal box = (0 0 0) to (21.72 21.72 21.72)
  create_atoms CPU = 0.001 seconds

timestep ${dt}
timestep 0.001

mass 1 28.0855
labelmap atom 1 Si

pair_style sw
pair_coeff * * Si.sw Si
Reading sw potential file Si.sw with DATE: 2007-06-11


velocity all create ${temp} 4928459 mom yes rot yes dist gaussian
velocity all create 300 4928459 mom yes rot yes dist gaussian

variable t equal time
#fix myhalt all halt 100 v_t >= 30.0 error continue

#fix NVE all nve

#run 10000000

#unfix myhalt

compute 1 all vacf

thermo 100
thermo_style	custom step time dt temp pe ke press vol #c_1[4]
thermo_modify	line one flush yes format 1 "ec %8lu" flush yes


fix NPT all npt temp ${temp} ${temp} ${tau_T} iso 0.0 0.0 1.0
fix NPT all npt temp 300 ${temp} ${tau_T} iso 0.0 0.0 1.0
fix NPT all npt temp 300 300 ${tau_T} iso 0.0 0.0 1.0
fix NPT all npt temp 300 300 0.1 iso 0.0 0.0 1.0

fix myhalt all halt 100 v_t >= 30.0 error continue

run 10000000

CITE-CITE-CITE-CITE-CITE-CITE-CITE-CITE-CITE-CITE-CITE-CITE-CITE

Your simulation uses code contributions which should be cited:

- Type Label Framework: https://doi.org/10.1021/acs.jpcb.3c08419

@Article{Gissinger24,
 author = {Jacob R. Gissinger, Ilia Nikiforov, Yaser Afshar, Brendon Waters, Moon-ki Choi, Daniel S. Karls, Alexander Stukowski, Wonpil Im, Hendrik Heinz, Axel Kohlmeyer, and Ellad B. Tadmor},
 title = {Type Label Framework for Bonded Force Fields in LAMMPS},
 journal = {J. Phys. Chem. B},
 year =    2024,
 volume =  128,
 number =  13,
 pages =   {3282--3297}
}

CITE-CITE-CITE-CITE-CITE-CITE-CITE-CITE-CITE-CITE-CITE-CITE-CITE

Neighbor list info ...
  update: every = 1 steps, delay = 0 steps, check = yes
  max neighbors/atom: 2000, page size: 100000
  master list distance cutoff = 5.77118
  ghost atom cutoff = 5.77118
  binsize = 2.88559, bins = 8 8 8
  1 neighbor lists, perpetual/occasional/extra = 1 0 0
  (1) pair sw, perpetual
      attributes: full, newton on
      pair build: full/bin/atomonly
      stencil: full/bin/3d
      bin: standard
Per MPI rank memory allocation (min/avg/max) = 3.612 | 3.612 | 3.612 Mbytes
   Step          Time            Dt            Temp          PotEng         KinEng         Press          Volume    
ec        0  0              0.001          300           -2220.3383      19.81558       2598.169       10246.592    
ec      100  0.1            0.001          158.01243     -2208.8853      10.437027     -1311.5003      10288.058    
ec      200  0.2            0.001          159.36971     -2205.4886      10.526678      531.84076      10273.23     
ec      300  0.3            0.001          223.30602     -2205.4797      14.749794      1177.7865      10267.776    
ec      400  0.4            0.001          224.15065     -2201.0259      14.805584     -2507.6527      10307.162    
ec      500  0.5            0.001          288.07456     -2201.121       19.027882      1355.9298      10272.405    
ec      600  0.6            0.001          333.32724     -2200.8133      22.016909     -854.58012      10299.272    
ec      700  0.7            0.001          263.90097     -2195.2624      17.43117      -968.37516      10300.402    
ec      800  0.8            0.001          316.2949      -2200.1873      20.89189       1141.3759      10277.57     
ec      900  0.9            0.001          316.47892     -2202.3196      20.904045     -1417.4709      10305.009    
ec     1000  1              0.001          241.47456     -2198.5143      15.949862      1356.562       10276.86     
ec     1100  1.1            0.001          298.8169      -2201.437       19.737434      256.26682      10289.375    
ec     1200  1.2            0.001          328.10837     -2201.6872      21.672193     -881.79669      10297.978    
ec     1300  1.3            0.001          310.00795     -2199.3505      20.476625      1389.4536      10277.37     
ec     1400  1.4            0.001          302.06909     -2199.1134      19.952248     -1869.6488      10309.019    
ec     1500  1.5            0.001          295.09689     -2200.1915      19.49172       943.48616      10278.335    
ec     1600  1.6            0.001          311.84488     -2202.3803      20.597957     -268.26619      10291.634    
ec     1700  1.7            0.001          283.80486     -2200.5774      18.74586      -908.74468      10299.091    
ec     1800  1.8            0.001          317.01253     -2201.5051      20.93929       2263.0198      10266.883    
ec     1900  1.9            0.001          311.92491     -2200.0355      20.603244     -2471.8043      10316.764    
ec     2000  2              0.001          317.50604     -2200.0974      20.971888      1801.6079      10274.718    
ec     2100  2.1            0.001          324.58104     -2201.6581      21.439206      100.22754      10286.942    
ec     2200  2.2            0.001          307.16434     -2201.5855      20.288799     -3033.8879      10319.185    
ec     2300  2.3            0.001          270.44389     -2199.5697      17.863342      3809.1869      10248.306    
ec     2400  2.4            0.001          267.76882     -2198.7435      17.686648     -4243.3303      10329.804    
ec     2500  2.5            0.001          236.76881     -2195.6616      15.639038      1213.0756      10276.326    
ec     2600  2.6            0.001          323.32281     -2200.8528      21.356097      1606.7756      10275.143    
ec     2700  2.7            0.001          319.79207     -2201.1274      21.122885     -4014.2886      10330.929    
ec     2800  2.8            0.001          271.06279     -2199.4403      17.904222      5149.8837      10239.186    
ec     2900  2.9            0.001          288.12454     -2200.7953      19.031183     -3129.4986      10322.594    
ec     3000  3              0.001          321.71379     -2202.306       21.249818      511.59612      10283.215    
ec     3100  3.1            0.001          297.59958     -2200.2006      19.657028      2723.3378      10262.925    
ec     3200  3.2            0.001          313.99706     -2201.0787      20.740113     -4446.5047      10337.072    
ec     3300  3.3            0.001          281.39511     -2198.9882      18.586691      4545.0795      10244.71     
ec     3400  3.4            0.001          312.46797     -2200.9611      20.639114     -2912.6299      10316.735    
ec     3500  3.5            0.001          298.23348     -2200.0981      19.698898     -1180.0873      10299.006    
ec     3600  3.6            0.001          296.29456     -2200.0848      19.570829      3217.5314      10256.751    
ec     3700  3.7            0.001          290.94443     -2200.1916      19.217442     -4073.2352      10331.158    
ec     3800  3.8            0.001          329.11227     -2202.777       21.738502      3186.1454      10258.414    
ec     3900  3.9            0.001          352.31014     -2203.8829      23.270766     -74.116425      10292.222    
ec     4000  4              0.001          291.09209     -2198.6744      19.227195     -2298.3292      10312.924    
ec     4100  4.1            0.001          290.27491     -2198.093       19.173219      3381.6482      10257.478    
ec     4200  4.2            0.001          306.75916     -2200.799       20.262036     -2659.6254      10318.603    
ec     4300  4.3            0.001          301.60032     -2201.6708      19.921284      1124.3903      10276.986    
ec     4400  4.4            0.001          288.70122     -2200.3397      19.069274      1076.4996      10278.836    
ec     4500  4.5            0.001          319.44766     -2201.4552      21.100136     -2323.256       10312.588    
ec     4600  4.6            0.001          280.93786     -2198.3082      18.556489      2069.7714      10267.596    
ec     4700  4.7            0.001          289.23765     -2198.9092      19.104706     -1173.8632      10303.37     
ec     4800  4.8            0.001          313.42217     -2202.4124      20.70214       23.182202      10288.421    
ec     4900  4.9            0.001          283.8089      -2201.0935      18.746127      1146.0797      10276.842    
ec     5000  5              0.001          327.35855     -2202.804       21.622666     -1185.9844      10302.848    
ec     5100  5.1            0.001          284.99259     -2198.9724      18.824312      1265.6224      10276.863    
ec     5200  5.2            0.001          316.34281     -2200.6167      20.895055     -735.20405      10298.891    
ec     5300  5.3            0.001          298.0567      -2200.0127      19.687222     -261.64189      10289.659    
ec     5400  5.4            0.001          299.58127     -2201.489       19.787922      565.22893      10282.666    
ec     5500  5.5            0.001          289.05235     -2201.9627      19.092467     -681.217        10295.657    
ec     5600  5.6            0.001          315.762       -2202.7334      20.856691      1393.0838      10275.998    
ec     5700  5.7            0.001          311.93994     -2201.5542      20.604237     -513.94516      10294.676    
ec     5800  5.8            0.001          307.66756     -2200.5461      20.322037     -53.724883      10290.398    
ec     5900  5.9            0.001          299.47858     -2199.758       19.781139      702.04946      10281.471    
ec     6000  6              0.001          274.43247     -2198.4091      18.126796     -1857.4361      10306.918    
ec     6100  6.1            0.001          312.73113     -2202.5323      20.656496      1237.3021      10274.485    
ec     6200  6.2            0.001          267.65569     -2200.019       17.679176     -766.80987      10294.604    
ec     6300  6.3            0.001          263.02646     -2198.4962      17.373406     -801.46959      10295.524    
ec     6400  6.4            0.001          300.00014     -2200.1004      19.815589      1193.2146      10274.58     
ec     6500  6.5            0.001          311.55927     -2200.6682      20.579093     -1702.1038      10309.183    
ec     6600  6.6            0.001          299.68559     -2200.1987      19.794813      1485.5857      10274.79     
ec     6700  6.7            0.001          299.19503     -2201.2153      19.76241       51.938897      10290.363    
ec     6800  6.8            0.001          286.14773     -2201.7475      18.900611     -953.62598      10299.254    
ec     6900  6.9            0.001          280.84945     -2200.8192      18.550649      2298.1954      10263.488    
ec     7000  7              0.001          317.76572     -2201.7541      20.98904      -2769.3965      10317.59     
ec     7100  7.1            0.001          302.64348     -2200.3505      19.990187      1566.466       10273.546    
ec     7200  7.2            0.001          275.04522     -2198.1912      18.167269      131.37628      10287.685    
ec     7300  7.3            0.001          312.90986     -2200.7459      20.668301     -2943.1135      10319.085    
ec     7400  7.4            0.001          302.6331      -2200.9966      19.989501      4408.4426      10244.672    
ec     7500  7.5            0.001          282.6103      -2200.8974      18.666957     -4246.5531      10330.336    
ec     7600  7.6            0.001          304.6493      -2201.8515      20.122676      1577.0604      10273.563    
ec     7700  7.7            0.001          288.29793     -2198.9827      19.042636      2433.5829      10264.891    
ec     7800  7.8            0.001          296.85005     -2199.3215      19.60752      -5989.2084      10353.23     
ec     7900  7.9            0.001          298.96672     -2199.8307      19.74733       6527.0822      10223.841    
ec     8000  8              0.001          279.43013     -2199.5964      18.456901     -4102.0406      10330.139    
ec     8100  8.1            0.001          294.51689     -2201.1189      19.45341      -616.0264       10295.804    
ec     8200  8.2            0.001          331.27532     -2203.4194      21.881375      4925.5806      10239.401    
ec     8300  8.3            0.001          307.00283     -2200.3284      20.278131     -5712.72        10351.872    
ec     8400  8.4            0.001          318.97156     -2200.3375      21.068688      5274.2576      10241.425    
ec     8500  8.5            0.001          291.39083     -2198.9978      19.246928     -1074.7316      10303.285    
ec     8600  8.6            0.001          285.3451      -2200.0456      18.847595     -2179.2176      10309.895    
ec     8700  8.7            0.001          320.88014     -2202.8554      21.194754      3885.7213      10248.618    
ec     8800  8.8            0.001          289.28841     -2200.346       19.108059     -4061.562       10329.609    
ec     8900  8.9            0.001          292.0161      -2200.1283      19.288228      2055.184       10266.864    
ec     9000  9              0.001          287.26588     -2199.3155      18.974467     -321.83505      10292.618    
ec     9100  9.1            0.001          297.67775     -2199.8765      19.662191     -2091.4999      10309.736    
ec     9200  9.2            0.001          289.07293     -2199.048       19.093826      2768.7404      10260.875    
ec     9300  9.3            0.001          322.83977     -2201.2618      21.324191     -2540.7333      10317.973    
ec     9400  9.4            0.001          331.4347      -2202.483       21.891903      2084.2293      10270.643    
ec     9500  9.5            0.001          316.60504     -2202.2895      20.912375      370.6682       10286.502    
ec     9600  9.6            0.001          292.91037     -2200.8646      19.347296     -1714.4013      10307.759    
ec     9700  9.7            0.001          299.63627     -2199.951       19.791555      2786.7518      10260.627    
ec     9800  9.8            0.001          312.21577     -2199.7065      20.622455     -2688.1498      10318.443    
ec     9900  9.9            0.001          298.01628     -2199.152       19.684552      1555.0428      10277.355    
ec    10000  10             0.001          329.91449     -2202.5246      21.79149       1100.3669      10279.897    
ec    10100  10.1           0.001          291.52136     -2200.2817      19.25555      -2364.123       10314.722    
ec    10200  10.2           0.001          289.0737      -2199.9459      19.093877      3016.3074      10257.923    
ec    10300  10.3           0.001          309.89183     -2200.8471      20.468955     -2541.4218      10313.73     
ec    10400  10.4           0.001          301.99836     -2199.4447      19.947576      447.13805      10287.563    
ec    10500  10.5           0.001          300.92162     -2198.1136      19.876455      1608.593       10275.539    
ec    10600  10.6           0.001          315.4622      -2198.9328      20.836888     -2888.4521      10321.267    
ec    10700  10.7           0.001          288.7492      -2199.1749      19.072443      2607.9013      10263.523    
ec    10800  10.8           0.001          293.1606      -2200.1951      19.363825     -1811.7256      10305.518    
ec    10900  10.9           0.001          313.16989     -2201.7692      20.685477     -566.21792      10293.912    
ec    11000  11             0.001          303.97995     -2200.6679      20.078464      2309.733       10268.269    
ec    11100  11.1           0.001          311.51545     -2199.7959      20.576198     -2364.8851      10316.482    
ec    11200  11.2           0.001          325.33916     -2200.0667      21.489281      2607.8683      10267.884    
ec    11300  11.3           0.001          309.90305     -2200.59        20.469696     -312.94525      10294.221    
ec    11400  11.4           0.001          293.68252     -2200.7637      19.398298     -1346.7624      10301.418    
ec    11500  11.5           0.001          288.42807     -2200.1537      19.051232      2477.0221      10264.508    
ec    11600  11.6           0.001          304.73482     -2200.5207      20.128324     -2738.9038      10315.71     
ec    11700  11.7           0.001          315.24134     -2200.2618      20.8223        1036.8488      10279.029    
ec    11800  11.8           0.001          284.8103      -2198.3138      18.812271      215.74124      10286.554    
ec    11900  11.9           0.001          275.30258     -2199.6529      18.184268     -2298.758       10309.596    
ec    12000  12             0.001          267.30476     -2199.6216      17.655997      2300.9322      10264.748    
ec    12100  12.1           0.001          291.22331     -2200.355       19.235863     -1688.8214      10304.939    
ec    12200  12.2           0.001          311.55416     -2200.5603      20.578755     -150.08804      10290.421    
ec    12300  12.3           0.001          319.46881     -2200.8418      21.101533      1517.4109      10277.088    
ec    12400  12.4           0.001          290.5694      -2199.5126      19.192671     -1787.4269      10307.612    
ec    12500  12.5           0.001          302.01479     -2201.2577      19.948661      1296.5887      10275.534    
ec    12600  12.6           0.001          287.35867     -2202.2064      18.980596     -12.563728      10289.799    
ec    12700  12.7           0.001          277.5814      -2201.3643      18.334789     -705.59839      10293.719    
ec    12800  12.8           0.001          303.96185     -2201.9239      20.077268      1000.4033      10278.447    
ec    12900  12.9           0.001          293.84729     -2200.1363      19.409182     -796.84122      10298.013    
ec    13000  13             0.001          301.51349     -2199.8308      19.915549      318.7889       10285.614    
ec    13100  13.1           0.001          314.87969     -2200.3667      20.798413      97.231484      10290.442    
ec    13200  13.2           0.001          312.39867     -2201.2736      20.634536     -94.690257      10290.578    
ec    13300  13.3           0.001          269.01412     -2200.0642      17.768903      315.15928      10285.058    
ec    13400  13.4           0.001          284.00685     -2200.7155      18.759201     -430.50845      10292.618    
ec    13500  13.5           0.001          286.83618     -2199.8891      18.946085      171.34237      10285.839    
ec    13600  13.6           0.001          290.1989      -2199.6613      19.168199     -529.15818      10294.045    
ec    13700  13.7           0.001          323.1035      -2201.4831      21.341611      129.92535      10288.915    
ec    13800  13.8           0.001          306.15315     -2200.578       20.222008      536.13794      10285.099    
ec    13900  13.9           0.001          308.01314     -2201.9194      20.344864     -467.07415      10294.713    
ec    14000  14             0.001          298.50784     -2202.3457      19.71702       928.10256      10279.078    
ec    14100  14.1           0.001          292.83871     -2201.0439      19.342563     -136.98226      10290.892    
ec    14200  14.2           0.001          287.682       -2199.4213      19.001953     -41.511877      10291.919    
ec    14300  14.3           0.001          323.56301     -2201.4868      21.371963      794.46199      10281.634    
ec    14400  14.4           0.001          313.93782     -2200.9159      20.7362       -975.61335      10298.885    
ec    14500  14.5           0.001          289.08932     -2200.0443      19.094909      237.73331      10285.086    
ec    14600  14.6           0.001          288.33432     -2201.3394      19.045039     -62.525979      10288.195    
ec    14700  14.7           0.001          271.42155     -2200.2118      17.927919     -642.86571      10293.897    
ec    14800  14.8           0.001          312.08471     -2200.9337      20.613798      609.53853      10282.938    
ec    14900  14.9           0.001          321.90692     -2201.0565      21.262575     -167.00861      10294.201    
ec    15000  15             0.001          306.43778     -2200.4096      20.240808      386.26277      10286.92     
ec    15100  15.1           0.001          316.50527     -2201.8686      20.905785      395.83111      10285.811    
ec    15200  15.2           0.001          289.93161     -2201.2399      19.150544     -498.62357      10293.072    
ec    15300  15.3           0.001          260.51605     -2199.7409      17.207589      393.60447      10282.732    
ec    15400  15.4           0.001          272.91273     -2198.8832      18.026413     -405.69917      10292.775    
ec    15500  15.5           0.001          308.90188     -2200.0327      20.403566     -96.774633      10292.384    
ec    15600  15.6           0.001          306.61308     -2200.1021      20.252387      567.49197      10284.237    
ec    15700  15.7           0.001          300.78367     -2200.7377      19.867343     -624.57206      10296.029    
ec    15800  15.8           0.001          295.34393     -2201.4012      19.508038      334.23047      10284.801    
ec    15900  15.9           0.001          289.23402     -2201.0934      19.104467      127.55362      10286.409    
ec    16000  16             0.001          309.26148     -2200.2695      20.427319     -676.7527       10297.191    
ec    16100  16.1           0.001          316.59392     -2200.1083      20.911641      600.62591      10283.335    
ec    16200  16.2           0.001          294.21172     -2199.4022      19.433253     -600.81156      10295.282    
ec    16300  16.3           0.001          273.94396     -2199.4156      18.094529     -368.23624      10291.401    
ec    16400  16.4           0.001          292.32398     -2200.7992      19.308565      487.41464      10283.144    
ec    16500  16.5           0.001          282.18448     -2199.732       18.63883      -723.28106      10296.249    
ec    16600  16.6           0.001          300.22458     -2200.484       19.830414      336.08461      10286.899    
ec    16700  16.7           0.001          316.03187     -2201.2293      20.874516      555.58667      10286.16     
ec    16800  16.8           0.001          303.7055      -2200.4202      20.060336     -237.834        10293.682    
ec    16900  16.9           0.001          315.29973     -2201.0419      20.826157      623.27364      10285.289    
ec    17000  17             0.001          305.91412     -2200.5158      20.206219      90.538688      10289.166    
ec    17100  17.1           0.001          280.01179     -2199.0743      18.49532      -705.0708       10295.227    
ec    17200  17.2           0.001          283.19161     -2199.6871      18.705353      21.880583      10286.83     
ec    17300  17.3           0.001          280.99009     -2199.8114      18.559939     -488.16124      10292.33     
ec    17400  17.4           0.001          269.63479     -2198.6333      17.809899     -489.45765      10292.842    
ec    17500  17.5           0.001          328.27965     -2201.0589      21.683506      321.6294       10287.958    
ec    17600  17.6           0.001          304.75961     -2199.1534      20.129962     -187.54374      10292.937    
ec    17700  17.7           0.001          312.79232     -2201.0798      20.660538     -132.72977      10292.12     
ec    17800  17.8           0.001          315.94014     -2202.4554      20.868457      684.33087      10283.331    
ec    17900  17.9           0.001          290.1949      -2200.4841      19.167934     -273.18166      10292.265    
ec    18000  18             0.001          304.72245     -2200.4855      20.127507      68.864766      10289.554    
ec    18100  18.1           0.001          316.17331     -2200.5524      20.883858      516.12901      10286.449    
ec    18200  18.2           0.001          316.83205     -2200.651       20.92737      -404.7893       10294.439    
ec    18300  18.3           0.001          291.47695     -2200.6443      19.252616      249.73357      10287.445    
ec    18400  18.4           0.001          280.19101     -2200.6685      18.507158     -7.5031189      10287.949    
ec    18500  18.5           0.001          286.12558     -2200.1485      18.899148     -453.60512      10293.062    
ec    18600  18.6           0.001          309.22193     -2200.3282      20.424707      343.41077      10287.414    
ec    18700  18.7           0.001          305.68659     -2199.8842      20.19119      -166.99623      10292.39     
ec    18800  18.8           0.001          309.82926     -2200.6977      20.464822      306.73996      10289.322    
ec    18900  18.9           0.001          304.59914     -2200.9461      20.119362      232.79274      10287.965    
ec    19000  19             0.001          287.86002     -2201.1538      19.013711     -515.22111      10291.726    
ec    19100  19.1           0.001          271.21572     -2201.3669      17.914323      39.881496      10286.46     
ec    19200  19.2           0.001          256.90047     -2199.264       16.968773     -86.718532      10288.53     
ec    19300  19.3           0.001          308.12122     -2201.3392      20.352003     -115.576        10291.689    
ec    19400  19.4           0.001          321.8567      -2201.532       21.259258      644.95331      10285.489    
ec    19500  19.5           0.001          327.82281     -2201.4765      21.653331     -221.16105      10292.854    
ec    19600  19.6           0.001          316.42252     -2200.6054      20.90032       233.20618      10289.199    
ec    19700  19.7           0.001          305.29398     -2201.0021      20.165258      449.16961      10286.226    
ec    19800  19.8           0.001          289.49765     -2201.1417      19.12188      -349.54362      10292.983    
ec    19900  19.9           0.001          302.15569     -2201.5955      19.957968      687.74095      10284.082    
ec    20000  20             0.001          296.72896     -2199.7004      19.599522     -152.04993      10290.957    
ec    20100  20.1           0.001          298.203       -2199.4924      19.696885     -678.13872      10295.711    
ec    20200  20.2           0.001          289.71591     -2199.2904      19.136296      29.533022      10287.168    
ec    20300  20.3           0.001          288.13547     -2199.9778      19.031905     -772.86706      10294.461    
ec    20400  20.4           0.001          277.59968     -2200.0053      18.335996     -239.08357      10290.5      
ec    20500  20.5           0.001          284.90974     -2200.8634      18.818839      639.88697      10283.116    
ec    20600  20.6           0.001          290.51187     -2200.3988      19.188871     -481.03438      10293.692    
ec    20700  20.7           0.001          318.33451     -2200.6673      21.02661       452.02866      10288.05     
ec    20800  20.8           0.001          309.28816     -2199.9463      20.429081      644.3198       10285.19     
ec    20900  20.9           0.001          312.15628     -2201.0598      20.618526     -965.80165      10299.416    
ec    21000  21             0.001          280.7883      -2200.4153      18.54661       1004.2699      10279.348    
ec    21100  21.1           0.001          279.57767     -2200.4444      18.466646     -319.70288      10291.007    
ec    21200  21.2           0.001          287.24987     -2200.3047      18.97341      -833.56586      10295.781    
ec    21300  21.3           0.001          281.60436     -2199.3795      18.600513      1033.0339      10278.151    
ec    21400  21.4           0.001          308.5978      -2200.6937      20.383482     -1053.5922      10300.094    
ec    21500  21.5           0.001          300.27034     -2199.688       19.833437      204.13138      10287.926    
ec    21600  21.6           0.001          320.48939     -2200.7279      21.168944      800.98889      10283.133    
ec    21700  21.7           0.001          311.63273     -2200.9617      20.583945     -1414.6279      10303.864    
ec    21800  21.8           0.001          283.32035     -2200.3658      18.713857      1280.9335      10274.969    
ec    21900  21.9           0.001          276.72008     -2200.0648      18.277897     -769.07009      10295.22     
ec    22000  22             0.001          280.96763     -2198.9273      18.558455     -537.53758      10294.557    
ec    22100  22.1           0.001          299.71103     -2199.0083      19.796493      1005.5066      10279.819    
ec    22200  22.2           0.001          309.9219      -2200.1615      20.470941     -1645.5346      10305.812    
ec    22300  22.3           0.001          307.3522      -2200.991       20.301207      1082.7494      10278.184    
ec    22400  22.4           0.001          295.4147      -2200.8907      19.512713      9.059945       10289.61     
ec    22500  22.5           0.001          330.5443      -2202.8549      21.83309      -296.0597       10295.16     
ec    22600  22.6           0.001          307.014       -2198.9394      20.278868      1857.4793      10274.586    
ec    22700  22.7           0.001          327.96196     -2200.1812      21.662522     -1401.6617      10307.965    
ec    22800  22.8           0.001          285.64479     -2198.9044      18.867391      838.17955      10280.584    
ec    22900  22.9           0.001          283.78237     -2199.7145      18.744375     -258.51461      10289.865    
ec    23000  23             0.001          303.19844     -2201.2129      20.026843     -1303.8425      10301.563    
ec    23100  23.1           0.001          295.81853     -2200.1408      19.539386      1845.8785      10270.628    
ec    23200  23.2           0.001          290.98148     -2197.9351      19.219889     -1826.0889      10309.967    
ec    23300  23.3           0.001          326.22032     -2200.2762      21.547483      946.32206      10281.843    
ec    23400  23.4           0.001          310.98716     -2200.4812      20.541303      326.00921      10286.305    
ec    23500  23.5           0.001          309.03511     -2200.9165      20.412367     -1618.7911      10306.542    
ec    23600  23.6           0.001          313.24012     -2201.3224      20.690116      2673.5401      10263.867    
ec    23700  23.7           0.001          297.34874     -2200.2077      19.640459     -1922.1836      10310.477    
ec    23800  23.8           0.001          324.11144     -2201.5378      21.408188      823.79776      10280.991    
ec    23900  23.9           0.001          315.39859     -2199.9816      20.832687      644.08175      10283.108    
ec    24000  24             0.001          290.53255     -2198.3421      19.190237     -2441.9506      10316.149    
ec    24100  24.1           0.001          290.1064      -2199.8958      19.162089      3133.5235      10258.103    
ec    24200  24.2           0.001          291.26369     -2200.7934      19.23853      -2369.3553      10313.047    
ec    24300  24.3           0.001          302.5252      -2201.0751      19.982375      652.32973      10284.038    
ec    24400  24.4           0.001          305.96995     -2200.6106      20.209907      2180.1514      10267.459    
ec    24500  24.5           0.001          307.14772     -2199.8855      20.287701     -3959.2316      10331.418    
ec    24600  24.6           0.001          305.40859     -2199.5054      20.172828      4125.505       10249.559    
ec    24700  24.7           0.001          292.05066     -2199.3298      19.290511     -2343.8436      10313.621    
ec    24800  24.8           0.001          295.79309     -2200.761       19.537706     -984.55881      10298.891    
ec    24900  24.9           0.001          297.22857     -2201.2043      19.632522      3859.3738      10250.576    
ec    25000  25             0.001          282.7393      -2199.5266      18.675478     -4658.8336      10337.13     
ec    25100  25.1           0.001          320.00055     -2200.5563      21.136655      3414.6105      10257.023    
ec    25200  25.2           0.001          297.19574     -2198.9564      19.630354     -498.28593      10294.973    
ec    25300  25.3           0.001          302.71041     -2200.1113      19.994608     -2694.7294      10317.159    
ec    25400  25.4           0.001          301.69142     -2200.4207      19.927302      4075.759       10248.942    
ec    25500  25.5           0.001          289.46046     -2199.7472      19.119423     -3417.2399      10324.515    
ec    25600  25.6           0.001          299.65417     -2200.3437      19.792737      1140.3269      10277.679    
ec    25700  25.7           0.001          316.12346     -2200.9625      20.880566      1070.4624      10280.319    
ec    25800  25.8           0.001          289.50141     -2198.4301      19.122128     -2446.489       10315.467    
ec    25900  25.9           0.001          326.11522     -2200.3497      21.540541      2228.4358      10269.728    
ec    26000  26             0.001          302.83935     -2200.2507      20.003125     -1242.9614      10302.738    
ec    26100  26.1           0.001          279.65557     -2199.8128      18.471791     -209.6618       10290.209    
ec    26200  26.2           0.001          290.69474     -2200.4326      19.20095       974.93951      10278.941    
ec    26300  26.3           0.001          289.68556     -2199.536       19.134291     -1169.6246      10302.41     
ec    26400  26.4           0.001          308.75837     -2199.764       20.394087      1108.7945      10280.434    
ec    26500  26.5           0.001          313.58766     -2198.2025      20.713072     -500.78364      10298.332    
ec    26600  26.6           0.001          326.67545     -2198.7272      21.577545     -69.088423      10293.807    
ec    26700  26.7           0.001          309.45537     -2199.5361      20.440126      456.65141      10286.831    
ec    26800  26.8           0.001          311.09707     -2200.6456      20.548563     -626.82545      10297.554    
ec    26900  26.9           0.001          285.04122     -2199.9487      18.827524      651.56395      10282.356    
ec    27000  27             0.001          293.03143     -2200.8365      19.355293     -494.97545      10294.407    
ec    27100  27.1           0.001          271.69527     -2198.7617      17.945998     -59.003005      10289.829    
ec    27200  27.2           0.001          318.08074     -2200.1459      21.009848      236.8995       10287.282    
ec    27300  27.3           0.001          329.44472     -2200.8049      21.760461     -926.54807      10300.432    
ec    27400  27.4           0.001          292.8094      -2199.3287      19.340627      956.09013      10280.586    
ec    27500  27.5           0.001          312.23939     -2201.1002      20.624016     -507.31689      10297.038    
ec    27600  27.6           0.001          301.48279     -2200.5474      19.913521      226.18834      10288.352    
ec    27700  27.7           0.001          302.10033     -2200.5008      19.954311      630.83426      10284.382    
ec    27800  27.8           0.001          302.87672     -2200.274       20.005593     -1012.053       10300.434    
ec    27900  27.9           0.001          315.51287     -2200.2163      20.840235      1206.8704      10279.822    
ec    28000  28             0.001          318.22793     -2200.2682      21.01957      -376.91523      10295.52     
ec    28100  28.1           0.001          314.07807     -2201.1557      20.745464     -68.24528       10292.7      
ec    28200  28.2           0.001          278.28952     -2200.0445      18.381561      1402.9789      10275.106    
ec    28300  28.3           0.001          287.58397     -2200.4237      18.995477     -1805.4933      10307.151    
ec    28400  28.4           0.001          292.47448     -2199.9314      19.318505      1130.2949      10277.09     
ec    28500  28.5           0.001          287.80098     -2199.1703      19.009812     -297.71162      10292.13     
ec    28600  28.6           0.001          293.17738     -2199.5853      19.364933     -1396.5754      10304.259    
ec    28700  28.7           0.001          303.56161     -2200.4073      20.050832      2337.5582      10266.603    
ec    28800  28.8           0.001          306.07101     -2200.9703      20.216582     -2122.962       10310.508    
ec    28900  28.9           0.001          301.2024      -2201.329       19.895001      675.02868      10282.215    
ec    29000  29             0.001          298.84189     -2201.8824      19.739085      1466.3559      10274.536    
ec    29100  29.1           0.001          290.97457     -2200.6875      19.219433     -2604.5884      10315.584    
ec    29200  29.2           0.001          320.13435     -2200.8968      21.145493      3135.6347      10261.343    
ec    29300  29.3           0.001          321.32974     -2200.8203      21.224451     -1221.2839      10304.175    
ec    29400  29.4           0.001          290.5131      -2199.5205      19.188952     -767.28312      10296.749    
ec    29500  29.5           0.001          292.45368     -2200.688       19.317131      2281.5143      10265.679    
ec    29600  29.6           0.001          280.16314     -2201.2806      18.505317     -3056.398       10317.94     
ec    29700  29.7           0.001          278.92157     -2201.2109      18.423309      1985.9624      10266.872    
ec    29800  29.8           0.001          302.7615      -2200.5862      19.997983     -252.61081      10292.902    
ec    29900  29.9           0.001          304.23316     -2199.7807      20.095189     -1678.5566      10307.052    
Fix halt condition for fix-id myhalt met on step 30000 with value 30 (../fix_halt.cpp:240)
ec    30000  30             0.001          286.16434     -2198.5454      18.901708      2659.5134      10262.029    
Loop time of 8.35107 on 2 procs for 30000 steps with 512 atoms

Performance: 310.380 ns/day, 0.077 hours/ns, 3592.356 timesteps/s, 1.839 Matom-step/s
98.0% CPU use with 2 MPI tasks x no OpenMP threads

MPI task timing breakdown:
Section |  min time  |  avg time  |  max time  |%varavg| %total
---------------------------------------------------------------
Pair    | 7.0941     | 7.1768     | 7.2596     |   3.1 | 85.94
Neigh   | 0          | 0          | 0          |   0.0 |  0.00
Comm    | 0.71999    | 0.80121    | 0.88244    |   9.1 |  9.59
Output  | 0.0046941  | 0.0087208  | 0.012747   |   4.3 |  0.10
Modify  | 0.29061    | 0.29377    | 0.29694    |   0.6 |  3.52
Other   |            | 0.07051    |            |       |  0.84

Nlocal:            256 ave         256 max         256 min
Histogram: 2 0 0 0 0 0 0 0 0 0
Nghost:           1081 ave        1081 max        1081 min
Histogram: 2 0 0 0 0 0 0 0 0 0
Neighs:              0 ave           0 max           0 min
Histogram: 2 0 0 0 0 0 0 0 0 0
FullNghs:         8704 ave        8704 max        8704 min
Histogram: 2 0 0 0 0 0 0 0 0 0

Total # of neighbors = 17408
Ave neighs/atom = 34
Neighbor list builds = 0
Dangerous builds = 0

unfix myhalt

fix myhalt all halt 100 v_t >= 60.0 error continue

unfix NPT

fix NVT all nvt temp ${temp} ${temp} ${tau_T}
fix NVT all nvt temp 300 ${temp} ${tau_T}
fix NVT all nvt temp 300 300 ${tau_T}
fix NVT all nvt temp 300 300 0.1

run 10000000
Per MPI rank memory allocation (min/avg/max) = 3.612 | 3.612 | 3.612 Mbytes
   Step          Time            Dt            Temp          PotEng         KinEng         Press          Volume    
ec    30000  30             0.001          286.16434     -2198.5454      18.901708      2659.5134      10262.029    
ec    30100  30.1           0.001          302.98816     -2199.7812      20.012954      2912.6005      10262.029    
ec    30200  30.2           0.001          270.27842     -2199.3837      17.852412      2428.1161      10262.029    
ec    30300  30.3           0.001          285.26285     -2200.9334      18.842163      2560.1208      10262.029    
ec    30400  30.4           0.001          292.50012     -2200.7127      19.320199      2588.8202      10262.029    
ec    30500  30.5           0.001          289.11158     -2199.7681      19.096379      2607.806       10262.029    
ec    30600  30.6           0.001          310.86134     -2200.7837      20.532993      2826.1205      10262.029    
ec    30700  30.7           0.001          317.23613     -2201.2264      20.95406       2806.7244      10262.029    
ec    30800  30.8           0.001          292.31238     -2199.8429      19.307798      2726.7158      10262.029    
ec    30900  30.9           0.001          306.74837     -2201.9558      20.261323      2726.0126      10262.029    
ec    31000  31             0.001          291.39604     -2202.0347      19.247272      2441.2921      10262.029    
ec    31100  31.1           0.001          294.2257      -2201.1551      19.434177      2491.0945      10262.029    
ec    31200  31.2           0.001          297.58462     -2200.0292      19.656039      2682.9994      10262.029    
ec    31300  31.3           0.001          271.45768     -2197.9932      17.930305      2616.4058      10262.029    
ec    31400  31.4           0.001          291.62844     -2199.6064      19.262623      2589.9412      10262.029    
ec    31500  31.5           0.001          289.39948     -2200.4699      19.115395      2528.047       10262.029    
ec    31600  31.6           0.001          277.96587     -2201.0537      18.360183      2499.8613      10262.029    
ec    31700  31.7           0.001          290.79424     -2201.2404      19.207522      2580.0051      10262.029    
ec    31800  31.8           0.001          296.99484     -2200.2786      19.617084      2792.5465      10262.029    
ec    31900  31.9           0.001          302.72744     -2200.2846      19.995733      2919.3754      10262.029    
ec    32000  32             0.001          313.94794     -2201.0733      20.736869      2861.22        10262.029    
ec    32100  32.1           0.001          297.1334      -2200.2841      19.626236      2713.6846      10262.029    
ec    32200  32.2           0.001          299.48457     -2201.0844      19.781535      2612.0147      10262.029    
ec    32300  32.3           0.001          295.31338     -2201.5136      19.50602       2447.4607      10262.029    
ec    32400  32.4           0.001          297.82872     -2201.0715      19.672163      2644.8035      10262.029    
ec    32500  32.5           0.001          313.35151     -2200.3747      20.697473      2921.2825      10262.029    
ec    32600  32.6           0.001          308.46904     -2199.8477      20.374977      2728.7933      10262.029    
ec    32700  32.7           0.001          296.42932     -2199.799       19.57973       2690.8679      10262.029    
ec    32800  32.8           0.001          298.72675     -2200.8971      19.73148       2606.5267      10262.029    
ec    32900  32.9           0.001          303.81054     -2201.4484      20.067274      2587.5839      10262.029    
ec    33000  33             0.001          293.32977     -2200.4666      19.374998      2682.6215      10262.029    
ec    33100  33.1           0.001          296.62972     -2200.2627      19.592967      2814.3453      10262.029    
ec    33200  33.2           0.001          290.27629     -2199.4519      19.17331       2623.1462      10262.029    
ec    33300  33.3           0.001          312.76816     -2200.2386      20.658942      2810.3743      10262.029    
ec    33400  33.4           0.001          304.18539     -2199.6718      20.092033      2742.6977      10262.029    
ec    33500  33.5           0.001          290.11559     -2200.015       19.162696      2774.4385      10262.029    
ec    33600  33.6           0.001          294.37377     -2201.21        19.443957      2728.9087      10262.029    
ec    33700  33.7           0.001          304.32272     -2201.542       20.101104      2685.1301      10262.029    
ec    33800  33.8           0.001          305.17334     -2200.1172      20.15729       2783.294       10262.029    
ec    33900  33.9           0.001          308.857       -2199.8031      20.400602      2757.4296      10262.029    
ec    34000  34             0.001          307.52408     -2200.1767      20.31256       2738.7207      10262.029    
ec    34100  34.1           0.001          285.70635     -2199.427       18.871457      2652.3089      10262.029    
ec    34200  34.2           0.001          294.02197     -2200.4965      19.42072       2658.5804      10262.029    
ec    34300  34.3           0.001          291.41594     -2200.8826      19.248587      2523.4662      10262.029    
ec    34400  34.4           0.001          291.12334     -2201.2961      19.22926       2540.2806      10262.029    
ec    34500  34.5           0.001          288.53261     -2200.3547      19.058137      2691.9882      10262.029    
ec    34600  34.6           0.001          306.27005     -2200.0987      20.229729      2795.5937      10262.029    
ec    34700  34.7           0.001          314.45065     -2200.2272      20.770074      2911.5211      10262.029    
ec    34800  34.8           0.001          316.34579     -2201.1576      20.895251      2842.807       10262.029    
ec    34900  34.9           0.001          289.10945     -2201.1056      19.096238      2590.8017      10262.029    
ec    35000  35             0.001          274.95542     -2200.5175      18.161337      2497.4165      10262.029    
ec    35100  35.1           0.001          272.36622     -2199.6531      17.990315      2549.4466      10262.029    
ec    35200  35.2           0.001          282.17192     -2199.3959      18.638001      2534.2931      10262.029    
ec    35300  35.3           0.001          316.7134      -2200.809       20.919532      2743.9201      10262.029    
ec    35400  35.4           0.001          298.25766     -2199.5626      19.700495      2750.269       10262.029    
ec    35500  35.5           0.001          294.32971     -2200.7507      19.441047      2615.2708      10262.029    
ec    35600  35.6           0.001          277.88751     -2200.878       18.355008      2471.3256      10262.029    
ec    35700  35.7           0.001          293.02209     -2201.0449      19.354676      2629.9824      10262.029    
ec    35800  35.8           0.001          302.04434     -2200.4476      19.950613      2703.3884      10262.029    
ec    35900  35.9           0.001          309.61625     -2200.6395      20.450752      2712.0531      10262.029    
ec    36000  36             0.001          308.21757     -2200.5797      20.358367      2663.9093      10262.029    
ec    36100  36.1           0.001          288.69683     -2200.0297      19.068984      2508.7793      10262.029    
ec    36200  36.2           0.001          286.63304     -2201.5371      18.932667      2517.4486      10262.029    
ec    36300  36.3           0.001          290.61895     -2201.6696      19.195944      2641.5458      10262.029    
ec    36400  36.4           0.001          309.25343     -2201.4157      20.426787      2769.7399      10262.029    
ec    36500  36.5           0.001          308.40092     -2200.8792      20.370478      2735.508       10262.029    
ec    36600  36.6           0.001          309.17551     -2200.7059      20.42164       2707.9383      10262.029    
ec    36700  36.7           0.001          274.60735     -2198.3935      18.138347      2592.8856      10262.029    
ec    36800  36.8           0.001          302.52893     -2200.5897      19.982621      2659.4349      10262.029    
ec    36900  36.9           0.001          295.79718     -2201.1092      19.537976      2594.5719      10262.029    
ec    37000  37             0.001          274.03028     -2200.2944      18.10023       2440.4643      10262.029    
ec    37100  37.1           0.001          301.55931     -2200.8666      19.918576      2680.7647      10262.029    
ec    37200  37.2           0.001          306.55478     -2199.7966      20.248536      2801.8399      10262.029    
ec    37300  37.3           0.001          312.21491     -2200.2952      20.622398      2864.2193      10262.029    
ec    37400  37.4           0.001          317.62912     -2201.3529      20.980017      3028.4057      10262.029    
ec    37500  37.5           0.001          304.21195     -2201.2866      20.093788      2793.5052      10262.029    
ec    37600  37.6           0.001          298.9854      -2201.0541      19.748564      2725.3614      10262.029    
ec    37700  37.7           0.001          324.72803     -2201.1147      21.448914      2771.3013      10262.029    
ec    37800  37.8           0.001          294.81046     -2198.2947      19.472801      2612.654       10262.029    
ec    37900  37.9           0.001          310.89053     -2200.1716      20.534921      2665.0695      10262.029    
ec    38000  38             0.001          293.37302     -2200.2587      19.377855      2664.7595      10262.029    
ec    38100  38.1           0.001          297.13056     -2201.0542      19.626048      2489.6483      10262.029    
ec    38200  38.2           0.001          298.89392     -2200.6765      19.742521      2658.7707      10262.029    
ec    38300  38.3           0.001          307.17552     -2199.2887      20.289537      2809.3228      10262.029    
ec    38400  38.4           0.001          308.25094     -2198.869       20.360571      2787.7261      10262.029    
ec    38500  38.5           0.001          317.24107     -2200.4046      20.954386      2867.9223      10262.029    
ec    38600  38.6           0.001          308.4464      -2200.7598      20.373482      2750.476       10262.029    
ec    38700  38.7           0.001          301.7001      -2200.9052      19.927875      2616.7292      10262.029    
ec    38800  38.8           0.001          292.49013     -2200.454       19.319539      2626.5408      10262.029    
ec    38900  38.9           0.001          281.02533     -2198.9431      18.562267      2605.3844      10262.029    
ec    39000  39             0.001          326.59403     -2200.5305      21.572167      2833.9028      10262.029    
ec    39100  39.1           0.001          312.0182      -2199.6862      20.609406      2874.3264      10262.029    
ec    39200  39.2           0.001          296.93986     -2200.2871      19.613452      2799.9954      10262.029    
ec    39300  39.3           0.001          301.47138     -2201.143       19.912768      2665.7415      10262.029    
ec    39400  39.4           0.001          293.22676     -2200.324       19.368195      2587.0095      10262.029    
ec    39500  39.5           0.001          309.42263     -2200.7936      20.437963      2559.2045      10262.029    
ec    39600  39.6           0.001          302.97625     -2199.0753      20.012167      2847.1056      10262.029    
ec    39700  39.7           0.001          297.10443     -2197.2229      19.624323      2887.5252      10262.029    
ec    39800  39.8           0.001          298.97748     -2198.7495      19.748041      2713.3598      10262.029    
ec    39900  39.9           0.001          307.60004     -2200.6839      20.317578      2507.4252      10262.029    
ec    40000  40             0.001          289.19777     -2199.9059      19.102072      2528.7734      10262.029    
ec    40100  40.1           0.001          299.04453     -2200.7811      19.75247       2745.4926      10262.029    
ec    40200  40.2           0.001          303.72935     -2200.9802      20.061911      2735.9902      10262.029    
ec    40300  40.3           0.001          316.38604     -2200.774       20.89791       2861.431       10262.029    
ec    40400  40.4           0.001          322.31164     -2200.1313      21.289307      2907.8756      10262.029    
ec    40500  40.5           0.001          304.9321      -2199.3905      20.141355      2873.9679      10262.029    
ec    40600  40.6           0.001          288.67506     -2200.3778      19.067546      2650.4884      10262.029    
ec    40700  40.7           0.001          305.97029     -2201.654       20.209929      2613.9611      10262.029    
ec    40800  40.8           0.001          293.49108     -2200.1802      19.385654      2528.2587      10262.029    
ec    40900  40.9           0.001          294.8731      -2199.102       19.476938      2664.7571      10262.029    
ec    41000  41             0.001          297.01803     -2198.9848      19.618616      2747.6344      10262.029    
ec    41100  41.1           0.001          279.90672     -2199.727       18.48838       2464.3773      10262.029    
ec    41200  41.2           0.001          301.68982     -2202.0165      19.927196      2600.4769      10262.029    
ec    41300  41.3           0.001          303.90899     -2201.4523      20.073777      2685.0557      10262.029    
ec    41400  41.4           0.001          305.03348     -2200.2756      20.148052      2664.1076      10262.029    
ec    41500  41.5           0.001          313.9062      -2200.5027      20.734111      2778.216       10262.029    
ec    41600  41.6           0.001          299.30162     -2199.9468      19.769451      2674.4189      10262.029    
ec    41700  41.7           0.001          293.24971     -2200.6001      19.36971       2447.3895      10262.029    
ec    41800  41.8           0.001          291.90257     -2202.2183      19.280729      2594.3976      10262.029    
ec    41900  41.9           0.001          288.21996     -2201.573       19.037486      2547.3607      10262.029    
ec    42000  42             0.001          298.47988     -2201.157       19.715174      2614.1569      10262.029    
ec    42100  42.1           0.001          320.09317     -2201.5191      21.142773      2793.6123      10262.029    
ec    42200  42.2           0.001          309.05699     -2200.347       20.413812      2662.2539      10262.029    
ec    42300  42.3           0.001          290.37782     -2199.0609      19.180017      2824.2542      10262.029    
ec    42400  42.4           0.001          296.93778     -2201.0149      19.613315      2707.3294      10262.029    
ec    42500  42.5           0.001          289.35059     -2201.5253      19.112166      2438.526       10262.029    
ec    42600  42.6           0.001          289.24125     -2200.688       19.104944      2516.6873      10262.029    
ec    42700  42.7           0.001          278.50247     -2198.8951      18.395627      2628.7325      10262.029    
ec    42800  42.8           0.001          294.35543     -2199.7743      19.442745      2546.3549      10262.029    
ec    42900  42.9           0.001          312.70032     -2200.9713      20.654461      2813.3203      10262.029    
ec    43000  43             0.001          293.63796     -2200.1641      19.395355      2668.9393      10262.029    
ec    43100  43.1           0.001          292.91957     -2201.2989      19.347904      2531.648       10262.029    
ec    43200  43.2           0.001          292.29485     -2201.7641      19.30664       2550.252       10262.029    
ec    43300  43.3           0.001          299.40843     -2200.8494      19.776506      2493.2497      10262.029    
ec    43400  43.4           0.001          310.16009     -2200.3783      20.486674      2735.6225      10262.029    
ec    43500  43.5           0.001          293.45115     -2199.4022      19.383016      2764.1583      10262.029    
ec    43600  43.6           0.001          308.40033     -2201.0787      20.370439      2539.7994      10262.029    
ec    43700  43.7           0.001          288.4529      -2200.9629      19.052872      2493.821       10262.029    
ec    43800  43.8           0.001          286.29181     -2201.6903      18.910128      2465.7273      10262.029    
ec    43900  43.9           0.001          294.12025     -2200.791       19.427212      2563.9137      10262.029    
ec    44000  44             0.001          310.6976      -2200.3362      20.522178      2806.7576      10262.029    
ec    44100  44.1           0.001          305.18819     -2199.9124      20.15827       2719.1654      10262.029    
ec    44200  44.2           0.001          277.27553     -2198.9447      18.314585      2675.5428      10262.029    
ec    44300  44.3           0.001          278.36035     -2200.0939      18.38624       2521.9315      10262.029    
ec    44400  44.4           0.001          287.1961      -2200.9572      18.969858      2522.5364      10262.029    
ec    44500  44.5           0.001          293.71278     -2199.5209      19.400297      2694.5942      10262.029    
ec    44600  44.6           0.001          311.36948     -2199.7949      20.566556      2760.8109      10262.029    
ec    44700  44.7           0.001          312.99747     -2200.4902      20.674088      2845.36        10262.029    
ec    44800  44.8           0.001          301.61076     -2200.9585      19.921974      2810.8124      10262.029    
ec    44900  44.9           0.001          288.70295     -2200.6368      19.069388      2617.4308      10262.029    
ec    45000  45             0.001          295.63841     -2200.5377      19.527489      2642.1576      10262.029    
ec    45100  45.1           0.001          317.96942     -2200.7982      21.002495      2667.3984      10262.029    
ec    45200  45.2           0.001          336.62933     -2199.7411      22.235019      2807.7084      10262.029    
ec    45300  45.3           0.001          306.57041     -2198.6467      20.249568      2905.072       10262.029    
ec    45400  45.4           0.001          297.86023     -2199.6399      19.674244      2649.0589      10262.029    
ec    45500  45.5           0.001          296.01965     -2200.7034      19.55267       2521.9469      10262.029    
ec    45600  45.6           0.001          297.94202     -2201.0318      19.679647      2667.4803      10262.029    
ec    45700  45.7           0.001          304.40926     -2200.8136      20.10682       2795.4858      10262.029    
ec    45800  45.8           0.001          318.20057     -2200.0363      21.017763      2904.0675      10262.029    
ec    45900  45.9           0.001          312.22643     -2199.4597      20.62316       3011.7266      10262.029    
ec    46000  46             0.001          304.45061     -2199.8977      20.109552      2679.4127      10262.029    
ec    46100  46.1           0.001          294.98771     -2199.8285      19.484509      2715.8526      10262.029    
ec    46200  46.2           0.001          294.85921     -2200.2278      19.476021      2656.0794      10262.029    
ec    46300  46.3           0.001          294.04431     -2200.5579      19.422195      2598.7227      10262.029    
ec    46400  46.4           0.001          297.4272      -2200.8349      19.645642      2603.7549      10262.029    
ec    46500  46.5           0.001          299.38589     -2200.3002      19.775017      2478.1534      10262.029    
ec    46600  46.6           0.001          309.66831     -2199.9507      20.454191      2653.0095      10262.029    
ec    46700  46.7           0.001          309.83829     -2199.7605      20.465418      2872.8182      10262.029    
ec    46800  46.8           0.001          319.91274     -2201.8844      21.130855      2765.6131      10262.029    
ec    46900  46.9           0.001          287.60451     -2200.9456      18.996834      2662.3087      10262.029    
ec    47000  47             0.001          314.03975     -2202.1539      20.742933      2772.1711      10262.029    
ec    47100  47.1           0.001          301.4451      -2200.5599      19.911032      2661.1237      10262.029    
ec    47200  47.2           0.001          299.62515     -2199.8832      19.790821      2780.4977      10262.029    
ec    47300  47.3           0.001          304.76486     -2200.2446      20.130309      2783.8887      10262.029    
ec    47400  47.4           0.001          305.52108     -2200.4811      20.180258      2751.9431      10262.029    
ec    47500  47.5           0.001          290.94573     -2199.723       19.217528      2745.9866      10262.029    
ec    47600  47.6           0.001          302.16349     -2200.605       19.958483      2627.4374      10262.029    
ec    47700  47.7           0.001          291.90423     -2200.0027      19.280839      2645.9697      10262.029    
ec    47800  47.8           0.001          293.27083     -2200.1854      19.371105      2614.8984      10262.029    
ec    47900  47.9           0.001          297.12171     -2200.2831      19.625464      2733.9225      10262.029    
ec    48000  48             0.001          298.84225     -2199.9805      19.739108      2771.7335      10262.029    
ec    48100  48.1           0.001          305.34711     -2199.9335      20.168768      2749.4333      10262.029    
ec    48200  48.2           0.001          319.28969     -2200.855       21.089702      2587.7181      10262.029    
ec    48300  48.3           0.001          278.21695     -2199.3558      18.376767      2586.2792      10262.029    
ec    48400  48.4           0.001          283.95556     -2200.6952      18.755814      2557.8029      10262.029    
ec    48500  48.5           0.001          290.96569     -2200.7741      19.218847      2555.732       10262.029    
ec    48600  48.6           0.001          333.31768     -2201.5686      22.016277      2908.9694      10262.029    
ec    48700  48.7           0.001          314.17382     -2200.1617      20.751788      2718.7676      10262.029    
ec    48800  48.8           0.001          308.88586     -2200.5359      20.402509      2716.6879      10262.029    
ec    48900  48.9           0.001          284.06789     -2199.9794      18.763234      2657.6343      10262.029    
ec    49000  49             0.001          298.93131     -2201.2801      19.744992      2560.886       10262.029    
ec    49100  49.1           0.001          295.97584     -2199.7827      19.549777      2687.6867      10262.029    
ec    49200  49.2           0.001          322.08216     -2199.76        21.27415       2812.7836      10262.029    
ec    49300  49.3           0.001          275.23668     -2197.5935      18.179915      2564.8423      10262.029    
ec    49400  49.4           0.001          286.7694      -2199.544       18.941674      2651.5492      10262.029    
ec    49500  49.5           0.001          296.05498     -2200.7208      19.555004      2633.055       10262.029    
ec    49600  49.6           0.001          295.65423     -2200.595       19.528534      2611.6037      10262.029    
ec    49700  49.7           0.001          312.21102     -2200.1695      20.622142      2925.447       10262.029    
ec    49800  49.8           0.001          320.80319     -2199.5849      21.189671      2775.2392      10262.029    
ec    49900  49.9           0.001          303.72532     -2199.3612      20.061645      2793.3158      10262.029    
ec    50000  50             0.001          320.06556     -2201.3235      21.140949      2705.3744      10262.029    
ec    50100  50.1           0.001          284.6801      -2199.5216      18.803672      2634.4099      10262.029    
ec    50200  50.2           0.001          302.68444     -2200.8095      19.992893      2771.9359      10262.029    
ec    50300  50.3           0.001          304.25852     -2200.9191      20.096863      2774.048       10262.029    
ec    50400  50.4           0.001          311.79427     -2200.6409      20.594614      2727.1296      10262.029    
ec    50500  50.5           0.001          304.89216     -2199.3466      20.138717      2990.9178      10262.029    
ec    50600  50.6           0.001          316.49687     -2200.3819      20.90523       2915.9146      10262.029    
ec    50700  50.7           0.001          293.38988     -2200.6162      19.378969      2571.5178      10262.029    
ec    50800  50.8           0.001          293.53385     -2200.9719      19.388479      2613.1228      10262.029    
ec    50900  50.9           0.001          278.86839     -2199.4988      18.419796      2585.5026      10262.029    
ec    51000  51             0.001          294.8573      -2199.4503      19.475895      2661.2647      10262.029    
ec    51100  51.1           0.001          298.09992     -2199.0821      19.690076      2762.1187      10262.029    
ec    51200  51.2           0.001          312.99707     -2201.6301      20.674062      2704.9627      10262.029    
ec    51300  51.3           0.001          293.69166     -2201.88        19.398902      2653.3782      10262.029    
ec    51400  51.4           0.001          303.24236     -2201.6958      20.029744      2749.4378      10262.029    
ec    51500  51.5           0.001          292.68448     -2199.5445      19.332376      2748.9174      10262.029    
ec    51600  51.6           0.001          310.50053     -2200.1328      20.50916       2823.1185      10262.029    
ec    51700  51.7           0.001          297.8961      -2199.6898      19.676614      2693.6402      10262.029    
ec    51800  51.8           0.001          306.04423     -2201.8217      20.214813      2585.5351      10262.029    
ec    51900  51.9           0.001          289.68658     -2201.3794      19.134359      2510.7398      10262.029    
ec    52000  52             0.001          289.43539     -2200.6565      19.117767      2586.6105      10262.029    
ec    52100  52.1           0.001          296.15033     -2200.4372      19.561302      2650.4192      10262.029    
ec    52200  52.2           0.001          308.60046     -2200.752       20.383657      2713.3274      10262.029    
ec    52300  52.3           0.001          297.6982      -2199.8596      19.663542      2715.6167      10262.029    
ec    52400  52.4           0.001          305.62948     -2200.3536      20.187418      2774.1767      10262.029    
ec    52500  52.5           0.001          300.73776     -2200.6625      19.864311      2590.4159      10262.029    
ec    52600  52.6           0.001          297.5387      -2201.1037      19.653006      2498.4356      10262.029    
ec    52700  52.7           0.001          280.52042     -2200.0421      18.528916      2485.7013      10262.029    
ec    52800  52.8           0.001          290.20668     -2199.4749      19.168712      2734.339       10262.029    
ec    52900  52.9           0.001          309.98485     -2199.6697      20.475099      2856.28        10262.029    
ec    53000  53             0.001          322.46522     -2200.8243      21.299452      2776.6024      10262.029    
ec    53100  53.1           0.001          288.1111      -2199.7272      19.030296      2688.7475      10262.029    
ec    53200  53.2           0.001          295.84071     -2200.5723      19.540851      2711.6361      10262.029    
ec    53300  53.3           0.001          293.43592     -2200.1813      19.38201       2674.2547      10262.029    
ec    53400  53.4           0.001          304.74998     -2200.4687      20.129325      2678.2225      10262.029    
ec    53500  53.5           0.001          312.20701     -2200.2538      20.621877      2728.0531      10262.029    
ec    53600  53.6           0.001          302.62477     -2198.9936      19.988951      2790.4457      10262.029    
ec    53700  53.7           0.001          296.37433     -2199.036       19.576098      2665.5523      10262.029    
ec    53800  53.8           0.001          306.76434     -2201.3325      20.262378      2648.6769      10262.029    
ec    53900  53.9           0.001          284.55192     -2200.4341      18.795205      2523.4622      10262.029    
ec    54000  54             0.001          293.52932     -2200.3791      19.388179      2682.4686      10262.029    
ec    54100  54.1           0.001          323.00938     -2201.0655      21.335394      2862.56        10262.029    
ec    54200  54.2           0.001          307.4222      -2199.0801      20.305831      2922.9246      10262.029    
ec    54300  54.3           0.001          303.56325     -2198.9681      20.05094       2778.8039      10262.029    
ec    54400  54.4           0.001          305.00529     -2200.7997      20.146189      2661.3039      10262.029    
ec    54500  54.5           0.001          275.81819     -2199.9984      18.218325      2506.4161      10262.029    
ec    54600  54.6           0.001          285.97455     -2200.3668      18.889172      2615.1139      10262.029    
ec    54700  54.7           0.001          297.44485     -2199.8491      19.646808      2827.3354      10262.029    
ec    54800  54.8           0.001          306.83035     -2199.7066      20.266738      2698.7534      10262.029    
ec    54900  54.9           0.001          306.98526     -2200.0487      20.27697       2854.8375      10262.029    
ec    55000  55             0.001          292.80498     -2200.5214      19.340335      2633.2753      10262.029    
ec    55100  55.1           0.001          293.03884     -2201.6339      19.355782      2595.4327      10262.029    
ec    55200  55.2           0.001          314.1025      -2201.7659      20.747078      2808.8889      10262.029    
ec    55300  55.3           0.001          312.10181     -2199.5559      20.614928      2830.2092      10262.029    
ec    55400  55.4           0.001          296.0476      -2198.868       19.554517      2887.0985      10262.029    
ec    55500  55.5           0.001          290.40079     -2199.9026      19.181534      2703.9283      10262.029    
ec    55600  55.6           0.001          297.30641     -2201.2107      19.637664      2606.7573      10262.029    
ec    55700  55.7           0.001          313.38985     -2202.1141      20.700006      2667.1812      10262.029    
ec    55800  55.8           0.001          299.49374     -2199.6509      19.782141      2903.0987      10262.029    
ec    55900  55.9           0.001          306.26168     -2199.4043      20.229176      2761.5474      10262.029    
ec    56000  56             0.001          317.88602     -2200.6294      20.996987      2889.0085      10262.029    
ec    56100  56.1           0.001          294.97966     -2199.8312      19.483977      2818.2027      10262.029    
ec    56200  56.2           0.001          297.7087      -2200.284       19.664235      2774.6238      10262.029    
ec    56300  56.3           0.001          290.33082     -2199.9351      19.176912      2714.3569      10262.029    
ec    56400  56.4           0.001          303.68033     -2200.6246      20.058673      2603.2459      10262.029    
ec    56500  56.5           0.001          309.82327     -2199.8775      20.464426      2756.2153      10262.029    
ec    56600  56.6           0.001          300.6953      -2198.6707      19.861506      2811.6085      10262.029    
ec    56700  56.7           0.001          290.1433      -2199.1185      19.164526      2754.8858      10262.029    
ec    56800  56.8           0.001          305.24933     -2201.3095      20.162309      2647.1455      10262.029    
ec    56900  56.9           0.001          290.114       -2200.4048      19.162591      2695.2703      10262.029    
ec    57000  57             0.001          308.28135     -2200.9474      20.36258       2840.3023      10262.029    
ec    57100  57.1           0.001          317.49676     -2200.0358      20.971275      3014.8204      10262.029    
ec    57200  57.2           0.001          319.89235     -2199.1265      21.129509      2904.2291      10262.029    
ec    57300  57.3           0.001          325.7345      -2200.4492      21.515394      2896.5334      10262.029    
ec    57400  57.4           0.001          300.83356     -2199.6501      19.870639      2788.5891      10262.029    
ec    57500  57.5           0.001          280.63243     -2199.3336      18.536315      2527.744       10262.029    
ec    57600  57.6           0.001          285.20589     -2200.1719      18.8384        2685.5519      10262.029    
ec    57700  57.7           0.001          280.2504      -2199.9772      18.511081      2484.6008      10262.029    
ec    57800  57.8           0.001          308.03542     -2200.2679      20.346336      2753.7966      10262.029    
ec    57900  57.9           0.001          320.00408     -2200.0034      21.136889      2913.5151      10262.029    
ec    58000  58             0.001          305.75099     -2199.7662      20.195444      2895.1152      10262.029    
ec    58100  58.1           0.001          289.38902     -2199.9445      19.114704      2739.4226      10262.029    
ec    58200  58.2           0.001          296.21742     -2200.5375      19.565734      2657.8423      10262.029    
ec    58300  58.3           0.001          285.77229     -2199.7022      18.875812      2544.8148      10262.029    
ec    58400  58.4           0.001          300.53565     -2200.052       19.850961      2713.8293      10262.029    
ec    58500  58.5           0.001          300.35873     -2199.0427      19.839275      2809.3942      10262.029    
ec    58600  58.6           0.001          311.25655     -2198.8043      20.559097      2799.6934      10262.029    
ec    58700  58.7           0.001          316.3848      -2200.3308      20.897828      2841.2181      10262.029    
ec    58800  58.8           0.001          299.01985     -2200.7265      19.75084       2711.6668      10262.029    
ec    58900  58.9           0.001          298.00356     -2200.8865      19.683712      2693.8648      10262.029    
ec    59000  59             0.001          305.27302     -2200.7812      20.163873      2797.1674      10262.029    
ec    59100  59.1           0.001          316.70158     -2200.3643      20.918752      2736.9112      10262.029    
ec    59200  59.2           0.001          309.72067     -2199.1081      20.457649      2718.2511      10262.029    
ec    59300  59.3           0.001          287.46995     -2199.2337      18.987946      2688.3168      10262.029    
ec    59400  59.4           0.001          288.18355     -2200.6114      19.035081      2445.124       10262.029    
ec    59500  59.5           0.001          281.5096      -2199.8712      18.594253      2524.1915      10262.029    
ec    59600  59.6           0.001          309.08932     -2200.5467      20.415947      2814.0943      10262.029    
ec    59700  59.7           0.001          312.1118      -2200.0536      20.615588      2891.7978      10262.029    
ec    59800  59.8           0.001          303.06234     -2199.7227      20.017854      2949.1597      10262.029    
ec    59900  59.9           0.001          294.91974     -2201.2075      19.480019      2725.5526      10262.029    
Fix halt condition for fix-id myhalt met on step 60000 with value 60 (../fix_halt.cpp:240)
ec    60000  60             0.001          295.35706     -2201.4646      19.508905      2579.5252      10262.029    
Loop time of 8.341 on 2 procs for 30000 steps with 512 atoms

Performance: 310.754 ns/day, 0.077 hours/ns, 3596.692 timesteps/s, 1.842 Matom-step/s
97.8% CPU use with 2 MPI tasks x no OpenMP threads

MPI task timing breakdown:
Section |  min time  |  avg time  |  max time  |%varavg| %total
---------------------------------------------------------------
Pair    | 7.0845     | 7.3335     | 7.5825     |   9.2 | 87.92
Neigh   | 0          | 0          | 0          |   0.0 |  0.00
Comm    | 0.55364    | 0.80004    | 1.0464     |  27.5 |  9.59
Output  | 0.0047195  | 0.0084578  | 0.012196   |   4.1 |  0.10
Modify  | 0.12764    | 0.12885    | 0.13006    |   0.3 |  1.54
Other   |            | 0.07017    |            |       |  0.84

Nlocal:            256 ave         264 max         248 min
Histogram: 1 0 0 0 0 0 0 0 0 1
Nghost:           1081 ave        1089 max        1073 min
Histogram: 1 0 0 0 0 0 0 0 0 1
Neighs:              0 ave           0 max           0 min
Histogram: 2 0 0 0 0 0 0 0 0 0
FullNghs:         8832 ave        9127 max        8537 min
Histogram: 1 0 0 0 0 0 0 0 0 1

Total # of neighbors = 17664
Ave neighs/atom = 34.5
Neighbor list builds = 0
Dangerous builds = 0

write_data cell.data_${temp}
write_data cell.data_300
System init for write_data ...
Total wall time: 0:00:16
